 Entering Gaussian System, Link 0=g09
 Initial command:
 /afs/math/software/gaussian/g09/@sys/l1.exe /net/beegfs/talagayev/fkbp/pdb-lig/JRI/Gau-25558.inp -scrdir=/net/beegfs/talagayev/fkbp/pdb-lig/JRI/
 Entering Link 1 = /afs/math/software/gaussian/g09/@sys/l1.exe PID=     25559.
  
 Copyright (c) 1988,1990,1992,1993,1995,1998,2003,2009, Gaussian, Inc.
                  All Rights Reserved.
  
 This is part of the Gaussian(R) 09 program.  It is based on
 the Gaussian(R) 03 system (copyright 2003, Gaussian, Inc.),
 the Gaussian(R) 98 system (copyright 1998, Gaussian, Inc.),
 the Gaussian(R) 94 system (copyright 1995, Gaussian, Inc.),
 the Gaussian 92(TM) system (copyright 1992, Gaussian, Inc.),
 the Gaussian 90(TM) system (copyright 1990, Gaussian, Inc.),
 the Gaussian 88(TM) system (copyright 1988, Gaussian, Inc.),
 the Gaussian 86(TM) system (copyright 1986, Carnegie Mellon
 University), and the Gaussian 82(TM) system (copyright 1983,
 Carnegie Mellon University). Gaussian is a federally registered
 trademark of Gaussian, Inc.
  
 This software contains proprietary and confidential information,
 including trade secrets, belonging to Gaussian, Inc.
  
 This software is provided under written license and may be
 used, copied, transmitted, or stored only in accord with that
 written license.
  
 The following legend is applicable only to US Government
 contracts under FAR:
  
                    RESTRICTED RIGHTS LEGEND
  
 Use, reproduction and disclosure by the US Government is
 subject to restrictions as set forth in subparagraphs (a)
 and (c) of the Commercial Computer Software - Restricted
 Rights clause in FAR 52.227-19.
  
 Gaussian, Inc.
 340 Quinnipiac St., Bldg. 40, Wallingford CT 06492
  
  
 ---------------------------------------------------------------
 Warning -- This program may not be used in any manner that
 competes with the business of Gaussian, Inc. or will provide
 assistance to any competitor of Gaussian, Inc.  The licensee
 of this program is prohibited from giving any competitor of
 Gaussian, Inc. access to this program.  By using this program,
 the user acknowledges that Gaussian, Inc. is engaged in the
 business of creating and licensing software in the field of
 computational chemistry and represents and warrants to the
 licensee that it is not a competitor of Gaussian, Inc. and that
 it will not use this program in any manner prohibited above.
 ---------------------------------------------------------------
  

 Cite this work as:
 Gaussian 09, Revision A.02,
 M. J. Frisch, G. W. Trucks, H. B. Schlegel, G. E. Scuseria, 
 M. A. Robb, J. R. Cheeseman, G. Scalmani, V. Barone, B. Mennucci, 
 G. A. Petersson, H. Nakatsuji, M. Caricato, X. Li, H. P. Hratchian, 
 A. F. Izmaylov, J. Bloino, G. Zheng, J. L. Sonnenberg, M. Hada, 
 M. Ehara, K. Toyota, R. Fukuda, J. Hasegawa, M. Ishida, T. Nakajima, 
 Y. Honda, O. Kitao, H. Nakai, T. Vreven, J. A. Montgomery, Jr., 
 J. E. Peralta, F. Ogliaro, M. Bearpark, J. J. Heyd, E. Brothers, 
 K. N. Kudin, V. N. Staroverov, R. Kobayashi, J. Normand, 
 K. Raghavachari, A. Rendell, J. C. Burant, S. S. Iyengar, J. Tomasi, 
 M. Cossi, N. Rega, J. M. Millam, M. Klene, J. E. Knox, J. B. Cross, 
 V. Bakken, C. Adamo, J. Jaramillo, R. Gomperts, R. E. Stratmann, 
 O. Yazyev, A. J. Austin, R. Cammi, C. Pomelli, J. W. Ochterski, 
 R. L. Martin, K. Morokuma, V. G. Zakrzewski, G. A. Voth, 
 P. Salvador, J. J. Dannenberg, S. Dapprich, A. D. Daniels, 
 O. Farkas, J. B. Foresman, J. V. Ortiz, J. Cioslowski, 
 and D. J. Fox, Gaussian, Inc., Wallingford CT, 2009.
 
 ******************************************
 Gaussian 09:  EM64L-G09RevA.02 11-Jun-2009
                14-Dec-2023 
 ******************************************
 %chk=molecule
 ------------------------------------------------------------
 #HF/6-31G* SCF=tight Test Pop=MK iop(6/33=2) iop(6/42=6) opt
 ------------------------------------------------------------
 1/18=20,19=15,38=1/1,3;
 2/9=110,12=2,17=6,18=5,40=1/2;
 3/5=1,6=6,7=1,11=9,16=1,25=1,30=1,71=1/1,2,3;
 4//1;
 5/5=2,32=2,38=5/2;
 6/7=2,8=2,9=2,10=2,15=8,20=1,28=1,33=2,42=6/1,2;
 7//1,2,3,16;
 1/18=20,19=15/3(2);
 2/9=110/2;
 99//99;
 2/9=110/2;
 3/5=1,6=6,7=1,11=9,16=1,25=1,30=1,71=1/1,2,3;
 4/5=5,16=3/1;
 5/5=2,32=2,38=5/2;
 7//1,2,3,16;
 1/18=20,19=15/3(-5);
 2/9=110/2;
 6/7=2,8=2,9=2,10=2,15=8,19=2,20=1,28=1,33=2,42=6/1,2;
 99/9=1/99;
 ---------------------
 remark line goes here
 ---------------------
 Symbolic Z-matrix:
 Charge =  1 Multiplicity = 1
 C                     52.386   -24.87     30.486 
 C                     58.278   -29.951    30.95 
 C                     59.2     -29.399    35.65 
 C                     58.461   -29.78     36.767 
 C                     59.064   -30.385    37.857 
 C                     60.417   -30.651    37.857 
 C                     61.218   -30.337    36.725 
 C                     60.598   -29.724    35.587 
 C                     61.423   -29.404    34.479 
 C                     63.274   -30.323    35.691 
 C                     62.753   -29.696    34.537 
 C                     54.648   -24.387    30.847 
 C                     61.011   -31.275    38.998 
 C                     54.226   -25.343    31.964 
 C                     52.878   -25.902    31.481 
 C                     57.29    -27.19     33.264 
 C                     57.532   -27.837    34.625 
 C                     58.3     -29.807    33.44 
 C                     58.366   -29.041    32.147 
 C                     56.13    -26.231    33.251 
 F                     53.011   -27.167    30.896 
 N                     53.365   -23.767    30.493 
 N                     55.218   -26.364    32.279 
 N                     58.561   -28.884    34.547 
 N                     62.56    -30.645    36.752 
 N                     61.43    -31.766    39.922 
 O                     57.243   -28.134    32.178 
 O                     56.094   -25.324    34.09 
 H                     51.404   -24.501    30.783 
 H                     52.323   -25.309    29.49 
 H                     59.133   -30.627    30.944 
 H                     58.281   -29.354    30.038 
 H                     57.357   -30.531    31.001 
 H                     57.396   -29.6      36.784 
 H                     58.468   -30.652    38.717 
 H                     61.003   -28.935    33.601 
 H                     64.329   -30.554    35.705 
 H                     63.402   -29.451    33.709 
 H                     55.076   -24.926    30.002 
 H                     55.363   -23.646    31.206 
 H                     54.134   -24.834    32.924 
 H                     52.178   -26.054    32.303 
 H                     58.177   -26.581    33.087 
 H                     56.601   -28.281    34.977 
 H                     57.858   -27.071    35.329 
 H                     59.051   -30.597    33.437 
 H                     57.31    -30.247    33.555 
 H                     59.317   -28.517    32.054 
 H                     53.108   -23.071    31.178 
 H                     53.408   -23.297    29.6 
 H                     55.217   -27.216    31.736 
 

 GradGradGradGradGradGradGradGradGradGradGradGradGradGradGradGradGradGrad
 Berny optimization.
 Initialization pass.
                           ----------------------------
                           !    Initial Parameters    !
                           ! (Angstroms and Degrees)  !
 --------------------------                            --------------------------
 ! Name  Definition              Value          Derivative Info.                !
 --------------------------------------------------------------------------------
 ! R1    R(1,15)                 1.5156         estimate D2E/DX2                !
 ! R2    R(1,22)                 1.4748         estimate D2E/DX2                !
 ! R3    R(1,29)                 1.0903         estimate D2E/DX2                !
 ! R4    R(1,30)                 1.0903         estimate D2E/DX2                !
 ! R5    R(2,19)                 1.5062         estimate D2E/DX2                !
 ! R6    R(2,31)                 1.09           estimate D2E/DX2                !
 ! R7    R(2,32)                 1.09           estimate D2E/DX2                !
 ! R8    R(2,33)                 1.0896         estimate D2E/DX2                !
 ! R9    R(3,4)                  1.3925         estimate D2E/DX2                !
 ! R10   R(3,8)                  1.4367         estimate D2E/DX2                !
 ! R11   R(3,24)                 1.3748         estimate D2E/DX2                !
 ! R12   R(4,5)                  1.3848         estimate D2E/DX2                !
 ! R13   R(4,34)                 1.0802         estimate D2E/DX2                !
 ! R14   R(5,6)                  1.3789         estimate D2E/DX2                !
 ! R15   R(5,35)                 1.0799         estimate D2E/DX2                !
 ! R16   R(6,7)                  1.4218         estimate D2E/DX2                !
 ! R17   R(6,13)                 1.4297         estimate D2E/DX2                !
 ! R18   R(7,8)                  1.4336         estimate D2E/DX2                !
 ! R19   R(7,25)                 1.3772         estimate D2E/DX2                !
 ! R20   R(8,9)                  1.418          estimate D2E/DX2                !
 ! R21   R(9,11)                 1.3629         estimate D2E/DX2                !
 ! R22   R(9,36)                 1.0804         estimate D2E/DX2                !
 ! R23   R(10,11)                1.4129         estimate D2E/DX2                !
 ! R24   R(10,25)                1.3188         estimate D2E/DX2                !
 ! R25   R(10,37)                1.0801         estimate D2E/DX2                !
 ! R26   R(11,38)                1.0802         estimate D2E/DX2                !
 ! R27   R(12,14)                1.5296         estimate D2E/DX2                !
 ! R28   R(12,22)                1.4683         estimate D2E/DX2                !
 ! R29   R(12,39)                1.0898         estimate D2E/DX2                !
 ! R30   R(12,40)                1.0905         estimate D2E/DX2                !
 ! R31   R(13,26)                1.1271         estimate D2E/DX2                !
 ! R32   R(14,15)                1.5372         estimate D2E/DX2                !
 ! R33   R(14,23)                1.458          estimate D2E/DX2                !
 ! R34   R(14,41)                1.0905         estimate D2E/DX2                !
 ! R35   R(15,21)                1.4            estimate D2E/DX2                !
 ! R36   R(15,42)                1.0903         estimate D2E/DX2                !
 ! R37   R(16,17)                1.5263         estimate D2E/DX2                !
 ! R38   R(16,20)                1.5051         estimate D2E/DX2                !
 ! R39   R(16,27)                1.4397         estimate D2E/DX2                !
 ! R40   R(16,43)                1.0904         estimate D2E/DX2                !
 ! R41   R(17,24)                1.4701         estimate D2E/DX2                !
 ! R42   R(17,44)                1.0899         estimate D2E/DX2                !
 ! R43   R(17,45)                1.0903         estimate D2E/DX2                !
 ! R44   R(18,19)                1.5043         estimate D2E/DX2                !
 ! R45   R(18,24)                1.4648         estimate D2E/DX2                !
 ! R46   R(18,46)                1.09           estimate D2E/DX2                !
 ! R47   R(18,47)                1.0895         estimate D2E/DX2                !
 ! R48   R(19,27)                1.4439         estimate D2E/DX2                !
 ! R49   R(19,48)                1.0898         estimate D2E/DX2                !
 ! R50   R(20,23)                1.3395         estimate D2E/DX2                !
 ! R51   R(20,28)                1.2361         estimate D2E/DX2                !
 ! R52   R(22,49)                1.0098         estimate D2E/DX2                !
 ! R53   R(22,50)                1.01           estimate D2E/DX2                !
 ! R54   R(23,51)                1.0103         estimate D2E/DX2                !
 ! A1    A(15,1,22)            106.8964         estimate D2E/DX2                !
 ! A2    A(15,1,29)            110.1207         estimate D2E/DX2                !
 ! A3    A(15,1,30)            110.1402         estimate D2E/DX2                !
 ! A4    A(22,1,29)            110.0887         estimate D2E/DX2                !
 ! A5    A(22,1,30)            110.1104         estimate D2E/DX2                !
 ! A6    A(29,1,30)            109.4561         estimate D2E/DX2                !
 ! A7    A(19,2,31)            109.4661         estimate D2E/DX2                !
 ! A8    A(19,2,32)            109.5031         estimate D2E/DX2                !
 ! A9    A(19,2,33)            109.4988         estimate D2E/DX2                !
 ! A10   A(31,2,32)            109.4457         estimate D2E/DX2                !
 ! A11   A(31,2,33)            109.461          estimate D2E/DX2                !
 ! A12   A(32,2,33)            109.4525         estimate D2E/DX2                !
 ! A13   A(4,3,8)              119.3215         estimate D2E/DX2                !
 ! A14   A(4,3,24)             119.96           estimate D2E/DX2                !
 ! A15   A(8,3,24)             120.1215         estimate D2E/DX2                !
 ! A16   A(3,4,5)              121.3215         estimate D2E/DX2                !
 ! A17   A(3,4,34)             119.3575         estimate D2E/DX2                !
 ! A18   A(5,4,34)             119.321          estimate D2E/DX2                !
 ! A19   A(4,5,6)              120.766          estimate D2E/DX2                !
 ! A20   A(4,5,35)             119.6395         estimate D2E/DX2                !
 ! A21   A(6,5,35)             119.5945         estimate D2E/DX2                !
 ! A22   A(5,6,7)              120.6753         estimate D2E/DX2                !
 ! A23   A(5,6,13)             119.4627         estimate D2E/DX2                !
 ! A24   A(7,6,13)             119.8485         estimate D2E/DX2                !
 ! A25   A(6,7,8)              118.8673         estimate D2E/DX2                !
 ! A26   A(6,7,25)             118.9453         estimate D2E/DX2                !
 ! A27   A(8,7,25)             122.1834         estimate D2E/DX2                !
 ! A28   A(3,8,7)              118.8658         estimate D2E/DX2                !
 ! A29   A(3,8,9)              123.3236         estimate D2E/DX2                !
 ! A30   A(7,8,9)              117.7197         estimate D2E/DX2                !
 ! A31   A(8,9,11)             119.0884         estimate D2E/DX2                !
 ! A32   A(8,9,36)             120.4507         estimate D2E/DX2                !
 ! A33   A(11,9,36)            120.4609         estimate D2E/DX2                !
 ! A34   A(11,10,25)           124.459          estimate D2E/DX2                !
 ! A35   A(11,10,37)           117.7541         estimate D2E/DX2                !
 ! A36   A(25,10,37)           117.7869         estimate D2E/DX2                !
 ! A37   A(9,11,10)            119.3192         estimate D2E/DX2                !
 ! A38   A(9,11,38)            120.3378         estimate D2E/DX2                !
 ! A39   A(10,11,38)           120.343          estimate D2E/DX2                !
 ! A40   A(14,12,22)           101.4728         estimate D2E/DX2                !
 ! A41   A(14,12,39)           111.4348         estimate D2E/DX2                !
 ! A42   A(14,12,40)           111.4182         estimate D2E/DX2                !
 ! A43   A(22,12,39)           111.412          estimate D2E/DX2                !
 ! A44   A(22,12,40)           111.4304         estimate D2E/DX2                !
 ! A45   A(39,12,40)           109.5009         estimate D2E/DX2                !
 ! A46   A(12,14,15)           103.8726         estimate D2E/DX2                !
 ! A47   A(12,14,23)           114.0625         estimate D2E/DX2                !
 ! A48   A(12,14,41)           111.9886         estimate D2E/DX2                !
 ! A49   A(15,14,23)           114.1976         estimate D2E/DX2                !
 ! A50   A(15,14,41)           111.8623         estimate D2E/DX2                !
 ! A51   A(23,14,41)           101.1904         estimate D2E/DX2                !
 ! A52   A(1,15,14)            104.0835         estimate D2E/DX2                !
 ! A53   A(1,15,21)            111.8238         estimate D2E/DX2                !
 ! A54   A(1,15,42)            112.4237         estimate D2E/DX2                !
 ! A55   A(14,15,21)           112.121          estimate D2E/DX2                !
 ! A56   A(14,15,42)           112.1366         estimate D2E/DX2                !
 ! A57   A(21,15,42)           104.4801         estimate D2E/DX2                !
 ! A58   A(17,16,20)           113.5778         estimate D2E/DX2                !
 ! A59   A(17,16,27)           113.5698         estimate D2E/DX2                !
 ! A60   A(17,16,43)           104.627          estimate D2E/DX2                !
 ! A61   A(20,16,27)           112.712          estimate D2E/DX2                !
 ! A62   A(20,16,43)           105.6447         estimate D2E/DX2                !
 ! A63   A(27,16,43)           105.6833         estimate D2E/DX2                !
 ! A64   A(16,17,24)           111.4434         estimate D2E/DX2                !
 ! A65   A(16,17,44)           108.9811         estimate D2E/DX2                !
 ! A66   A(16,17,45)           108.9885         estimate D2E/DX2                !
 ! A67   A(24,17,44)           108.9609         estimate D2E/DX2                !
 ! A68   A(24,17,45)           108.9869         estimate D2E/DX2                !
 ! A69   A(44,17,45)           109.4573         estimate D2E/DX2                !
 ! A70   A(19,18,24)           108.7179         estimate D2E/DX2                !
 ! A71   A(19,18,46)           109.6613         estimate D2E/DX2                !
 ! A72   A(19,18,47)           109.6485         estimate D2E/DX2                !
 ! A73   A(24,18,46)           109.6344         estimate D2E/DX2                !
 ! A74   A(24,18,47)           109.6722         estimate D2E/DX2                !
 ! A75   A(46,18,47)           109.4915         estimate D2E/DX2                !
 ! A76   A(2,19,18)            111.8928         estimate D2E/DX2                !
 ! A77   A(2,19,27)            110.5573         estimate D2E/DX2                !
 ! A78   A(2,19,48)            105.8826         estimate D2E/DX2                !
 ! A79   A(18,19,27)           105.5031         estimate D2E/DX2                !
 ! A80   A(18,19,48)           110.884          estimate D2E/DX2                !
 ! A81   A(27,19,48)           112.2416         estimate D2E/DX2                !
 ! A82   A(16,20,23)           117.8875         estimate D2E/DX2                !
 ! A83   A(16,20,28)           118.9542         estimate D2E/DX2                !
 ! A84   A(23,20,28)           123.064          estimate D2E/DX2                !
 ! A85   A(1,22,12)            105.3899         estimate D2E/DX2                !
 ! A86   A(1,22,49)            110.4723         estimate D2E/DX2                !
 ! A87   A(1,22,50)            111.8435         estimate D2E/DX2                !
 ! A88   A(12,22,49)           110.4804         estimate D2E/DX2                !
 ! A89   A(12,22,50)           111.8669         estimate D2E/DX2                !
 ! A90   A(49,22,50)           106.8493         estimate D2E/DX2                !
 ! A91   A(14,23,20)           123.401          estimate D2E/DX2                !
 ! A92   A(14,23,51)           118.2781         estimate D2E/DX2                !
 ! A93   A(20,23,51)           118.3209         estimate D2E/DX2                !
 ! A94   A(3,24,17)            123.3362         estimate D2E/DX2                !
 ! A95   A(3,24,18)            116.9431         estimate D2E/DX2                !
 ! A96   A(17,24,18)           111.3562         estimate D2E/DX2                !
 ! A97   A(7,25,10)            117.2069         estimate D2E/DX2                !
 ! A98   A(16,27,19)           113.7467         estimate D2E/DX2                !
 ! A99   L(6,13,26,5,-1)       177.2035         estimate D2E/DX2                !
 ! A100  L(6,13,26,5,-2)       180.1814         estimate D2E/DX2                !
 ! D1    D(22,1,15,14)          -3.5319         estimate D2E/DX2                !
 ! D2    D(22,1,15,21)        -124.775          estimate D2E/DX2                !
 ! D3    D(22,1,15,42)         118.0553         estimate D2E/DX2                !
 ! D4    D(29,1,15,14)        -123.1084         estimate D2E/DX2                !
 ! D5    D(29,1,15,21)         115.6486         estimate D2E/DX2                !
 ! D6    D(29,1,15,42)          -1.5211         estimate D2E/DX2                !
 ! D7    D(30,1,15,14)         116.0814         estimate D2E/DX2                !
 ! D8    D(30,1,15,21)          -5.1616         estimate D2E/DX2                !
 ! D9    D(30,1,15,42)        -122.3313         estimate D2E/DX2                !
 ! D10   D(15,1,22,12)          29.0332         estimate D2E/DX2                !
 ! D11   D(15,1,22,49)         -90.3159         estimate D2E/DX2                !
 ! D12   D(15,1,22,50)         150.8039         estimate D2E/DX2                !
 ! D13   D(29,1,22,12)         148.6302         estimate D2E/DX2                !
 ! D14   D(29,1,22,49)          29.2812         estimate D2E/DX2                !
 ! D15   D(29,1,22,50)         -89.5991         estimate D2E/DX2                !
 ! D16   D(30,1,22,12)         -90.5994         estimate D2E/DX2                !
 ! D17   D(30,1,22,49)         150.0515         estimate D2E/DX2                !
 ! D18   D(30,1,22,50)          31.1713         estimate D2E/DX2                !
 ! D19   D(31,2,19,18)         -62.7242         estimate D2E/DX2                !
 ! D20   D(31,2,19,27)         179.9945         estimate D2E/DX2                !
 ! D21   D(31,2,19,48)          58.1911         estimate D2E/DX2                !
 ! D22   D(32,2,19,18)         177.2906         estimate D2E/DX2                !
 ! D23   D(32,2,19,27)          60.0093         estimate D2E/DX2                !
 ! D24   D(32,2,19,48)         -61.7941         estimate D2E/DX2                !
 ! D25   D(33,2,19,18)          57.2771         estimate D2E/DX2                !
 ! D26   D(33,2,19,27)         -60.0042         estimate D2E/DX2                !
 ! D27   D(33,2,19,48)         178.1924         estimate D2E/DX2                !
 ! D28   D(8,3,4,5)              4.424          estimate D2E/DX2                !
 ! D29   D(8,3,4,34)          -175.5875         estimate D2E/DX2                !
 ! D30   D(24,3,4,5)           175.5777         estimate D2E/DX2                !
 ! D31   D(24,3,4,34)           -4.4337         estimate D2E/DX2                !
 ! D32   D(4,3,8,7)             -4.9964         estimate D2E/DX2                !
 ! D33   D(4,3,8,9)            178.5533         estimate D2E/DX2                !
 ! D34   D(24,3,8,7)          -176.1356         estimate D2E/DX2                !
 ! D35   D(24,3,8,9)             7.4141         estimate D2E/DX2                !
 ! D36   D(4,3,24,17)           47.0035         estimate D2E/DX2                !
 ! D37   D(4,3,24,18)          -98.4123         estimate D2E/DX2                !
 ! D38   D(8,3,24,17)         -141.9141         estimate D2E/DX2                !
 ! D39   D(8,3,24,18)           72.6701         estimate D2E/DX2                !
 ! D40   D(3,4,5,6)             -1.2031         estimate D2E/DX2                !
 ! D41   D(3,4,5,35)           178.8172         estimate D2E/DX2                !
 ! D42   D(34,4,5,6)           178.8084         estimate D2E/DX2                !
 ! D43   D(34,4,5,35)           -1.1714         estimate D2E/DX2                !
 ! D44   D(4,5,6,7)             -1.4201         estimate D2E/DX2                !
 ! D45   D(4,5,6,13)           179.9176         estimate D2E/DX2                !
 ! D46   D(35,5,6,7)           178.5597         estimate D2E/DX2                !
 ! D47   D(35,5,6,13)           -0.1026         estimate D2E/DX2                !
 ! D48   D(5,6,7,8)              0.7102         estimate D2E/DX2                !
 ! D49   D(5,6,7,25)          -178.5784         estimate D2E/DX2                !
 ! D50   D(13,6,7,8)           179.3674         estimate D2E/DX2                !
 ! D51   D(13,6,7,25)            0.0788         estimate D2E/DX2                !
 ! D52   D(6,7,8,3)              2.4754         estimate D2E/DX2                !
 ! D53   D(6,7,8,9)            179.1251         estimate D2E/DX2                !
 ! D54   D(25,7,8,3)          -178.2602         estimate D2E/DX2                !
 ! D55   D(25,7,8,9)            -1.6105         estimate D2E/DX2                !
 ! D56   D(6,7,25,10)         -179.14           estimate D2E/DX2                !
 ! D57   D(8,7,25,10)            1.5962         estimate D2E/DX2                !
 ! D58   D(3,8,9,11)           176.8864         estimate D2E/DX2                !
 ! D59   D(3,8,9,36)            -3.1026         estimate D2E/DX2                !
 ! D60   D(7,8,9,11)             0.398          estimate D2E/DX2                !
 ! D61   D(7,8,9,36)          -179.591          estimate D2E/DX2                !
 ! D62   D(8,9,11,10)            0.7144         estimate D2E/DX2                !
 ! D63   D(8,9,11,38)         -179.3147         estimate D2E/DX2                !
 ! D64   D(36,9,11,10)        -179.2966         estimate D2E/DX2                !
 ! D65   D(36,9,11,38)           0.6743         estimate D2E/DX2                !
 ! D66   D(25,10,11,9)          -0.7612         estimate D2E/DX2                !
 ! D67   D(25,10,11,38)        179.2679         estimate D2E/DX2                !
 ! D68   D(37,10,11,9)         179.2544         estimate D2E/DX2                !
 ! D69   D(37,10,11,38)         -0.7165         estimate D2E/DX2                !
 ! D70   D(11,10,25,7)          -0.4058         estimate D2E/DX2                !
 ! D71   D(37,10,25,7)         179.5786         estimate D2E/DX2                !
 ! D72   D(22,12,14,15)         39.3079         estimate D2E/DX2                !
 ! D73   D(22,12,14,23)        164.2439         estimate D2E/DX2                !
 ! D74   D(22,12,14,41)        -81.5813         estimate D2E/DX2                !
 ! D75   D(39,12,14,15)        -79.3694         estimate D2E/DX2                !
 ! D76   D(39,12,14,23)         45.5666         estimate D2E/DX2                !
 ! D77   D(39,12,14,41)        159.7414         estimate D2E/DX2                !
 ! D78   D(40,12,14,15)        157.9992         estimate D2E/DX2                !
 ! D79   D(40,12,14,23)        -77.0648         estimate D2E/DX2                !
 ! D80   D(40,12,14,41)         37.11           estimate D2E/DX2                !
 ! D81   D(14,12,22,1)         -42.2079         estimate D2E/DX2                !
 ! D82   D(14,12,22,49)         77.1358         estimate D2E/DX2                !
 ! D83   D(14,12,22,50)       -163.9635         estimate D2E/DX2                !
 ! D84   D(39,12,22,1)          76.4857         estimate D2E/DX2                !
 ! D85   D(39,12,22,49)       -164.1706         estimate D2E/DX2                !
 ! D86   D(39,12,22,50)        -45.2699         estimate D2E/DX2                !
 ! D87   D(40,12,22,1)        -160.8905         estimate D2E/DX2                !
 ! D88   D(40,12,22,49)        -41.5468         estimate D2E/DX2                !
 ! D89   D(40,12,22,50)         77.3539         estimate D2E/DX2                !
 ! D90   D(12,14,15,1)         -21.8904         estimate D2E/DX2                !
 ! D91   D(12,14,15,21)         99.1543         estimate D2E/DX2                !
 ! D92   D(12,14,15,42)       -143.6682         estimate D2E/DX2                !
 ! D93   D(23,14,15,1)        -146.7395         estimate D2E/DX2                !
 ! D94   D(23,14,15,21)        -25.6949         estimate D2E/DX2                !
 ! D95   D(23,14,15,42)         91.4826         estimate D2E/DX2                !
 ! D96   D(41,14,15,1)          99.0837         estimate D2E/DX2                !
 ! D97   D(41,14,15,21)       -139.8717         estimate D2E/DX2                !
 ! D98   D(41,14,15,42)        -22.6941         estimate D2E/DX2                !
 ! D99   D(12,14,23,20)         94.1795         estimate D2E/DX2                !
 ! D100  D(12,14,23,51)        -85.8416         estimate D2E/DX2                !
 ! D101  D(15,14,23,20)       -146.5762         estimate D2E/DX2                !
 ! D102  D(15,14,23,51)         33.4027         estimate D2E/DX2                !
 ! D103  D(41,14,23,20)        -26.241          estimate D2E/DX2                !
 ! D104  D(41,14,23,51)        153.7379         estimate D2E/DX2                !
 ! D105  D(20,16,17,24)        172.9076         estimate D2E/DX2                !
 ! D106  D(20,16,17,44)         52.6256         estimate D2E/DX2                !
 ! D107  D(20,16,17,45)        -66.7732         estimate D2E/DX2                !
 ! D108  D(27,16,17,24)         42.3655         estimate D2E/DX2                !
 ! D109  D(27,16,17,44)        -77.9165         estimate D2E/DX2                !
 ! D110  D(27,16,17,45)        162.6847         estimate D2E/DX2                !
 ! D111  D(43,16,17,24)        -72.3846         estimate D2E/DX2                !
 ! D112  D(43,16,17,44)        167.3335         estimate D2E/DX2                !
 ! D113  D(43,16,17,45)         47.9346         estimate D2E/DX2                !
 ! D114  D(17,16,20,23)       -130.4762         estimate D2E/DX2                !
 ! D115  D(17,16,20,28)         52.9461         estimate D2E/DX2                !
 ! D116  D(27,16,20,23)          0.4913         estimate D2E/DX2                !
 ! D117  D(27,16,20,28)       -176.0864         estimate D2E/DX2                !
 ! D118  D(43,16,20,23)        115.4227         estimate D2E/DX2                !
 ! D119  D(43,16,20,28)        -61.1551         estimate D2E/DX2                !
 ! D120  D(17,16,27,19)        -50.6911         estimate D2E/DX2                !
 ! D121  D(20,16,27,19)        178.3373         estimate D2E/DX2                !
 ! D122  D(43,16,27,19)         63.4293         estimate D2E/DX2                !
 ! D123  D(16,17,24,3)         163.8631         estimate D2E/DX2                !
 ! D124  D(16,17,24,18)        -49.0464         estimate D2E/DX2                !
 ! D125  D(44,17,24,3)         -75.843          estimate D2E/DX2                !
 ! D126  D(44,17,24,18)         71.2475         estimate D2E/DX2                !
 ! D127  D(45,17,24,3)          43.543          estimate D2E/DX2                !
 ! D128  D(45,17,24,18)       -169.3665         estimate D2E/DX2                !
 ! D129  D(24,18,19,2)         172.9032         estimate D2E/DX2                !
 ! D130  D(24,18,19,27)        -66.8191         estimate D2E/DX2                !
 ! D131  D(24,18,19,48)         54.9339         estimate D2E/DX2                !
 ! D132  D(46,18,19,2)          53.0482         estimate D2E/DX2                !
 ! D133  D(46,18,19,27)        173.3259         estimate D2E/DX2                !
 ! D134  D(46,18,19,48)        -64.9211         estimate D2E/DX2                !
 ! D135  D(47,18,19,2)         -67.2033         estimate D2E/DX2                !
 ! D136  D(47,18,19,27)         53.0744         estimate D2E/DX2                !
 ! D137  D(47,18,19,48)        174.8274         estimate D2E/DX2                !
 ! D138  D(19,18,24,3)        -147.8104         estimate D2E/DX2                !
 ! D139  D(19,18,24,17)         62.7992         estimate D2E/DX2                !
 ! D140  D(46,18,24,3)         -27.9386         estimate D2E/DX2                !
 ! D141  D(46,18,24,17)       -177.3291         estimate D2E/DX2                !
 ! D142  D(47,18,24,3)          92.3109         estimate D2E/DX2                !
 ! D143  D(47,18,24,17)        -57.0795         estimate D2E/DX2                !
 ! D144  D(2,19,27,16)        -177.3357         estimate D2E/DX2                !
 ! D145  D(18,19,27,16)         61.5135         estimate D2E/DX2                !
 ! D146  D(48,19,27,16)        -59.3575         estimate D2E/DX2                !
 ! D147  D(16,20,23,14)       -165.6715         estimate D2E/DX2                !
 ! D148  D(16,20,23,51)         14.3496         estimate D2E/DX2                !
 ! D149  D(28,20,23,14)         10.7552         estimate D2E/DX2                !
 ! D150  D(28,20,23,51)       -169.2237         estimate D2E/DX2                !
 --------------------------------------------------------------------------------
 Trust Radius=3.00D-01 FncErr=1.00D-07 GrdErr=1.00D-07
 Number of steps in this run= 306 maximum allowed number of steps= 306.
 GradGradGradGradGradGradGradGradGradGradGradGradGradGradGradGradGradGrad

 Stoichiometry    C20H23FN5O2(1+)
 Framework group  C1[X(C20H23FN5O2)]
 Deg. of freedom   147
 Full point group                 C1      NOp   1
 Largest Abelian subgroup         C1      NOp   1
 Largest concise Abelian subgroup C1      NOp   1
                         Standard orientation:                         
 ---------------------------------------------------------------------
 Center     Atomic      Atomic             Coordinates (Angstroms)
 Number     Number       Type             X           Y           Z
 ---------------------------------------------------------------------
      1          6           0        7.241607   -0.519722    0.272414
      2          6           0        0.463785    3.045516    1.720770
      3          6           0       -2.432118   -0.458899    0.115275
      4          6           0       -2.702691   -1.719697    0.640773
      5          6           0       -3.996751   -2.207759    0.711054
      6          6           0       -5.062561   -1.444877    0.282772
      7          6           0       -4.859150   -0.127867   -0.212937
      8          6           0       -3.523697    0.389762   -0.274889
      9          6           0       -3.346915    1.698637   -0.790914
     10          6           0       -5.722577    1.823847   -1.074213
     11          6           0       -4.440421    2.405232   -1.194022
     12          6           0        5.712381    0.306921   -1.295510
     13          6           0       -6.386896   -1.977077    0.366405
     14          6           0        4.945411   -0.692962   -0.428504
     15          6           0        5.870012   -0.919463    0.778427
     16          6           0        1.235217    0.153566   -0.514265
     17          6           0        0.025730   -0.745196   -0.271653
     18          6           0       -0.818528    0.964402    1.224828
     19          6           0        0.198236    1.951525    0.720110
     20          6           0        2.507677   -0.606849   -0.775155
     21          9           0        5.483110   -0.159633    1.888879
     22          7           0        7.089992   -0.181186   -1.154998
     23          7           0        3.597486   -0.263069   -0.076336
     24          7           0       -1.149433    0.035231    0.141942
     25          7           0       -5.952036    0.613448   -0.603591
     26          7           0       -7.409474   -2.443378    0.451931
     27          8           0        1.396415    1.182567    0.479674
     28          8           0        2.518768   -1.468790   -1.661044
     29          1           0        7.940426   -1.348492    0.388549
     30          1           0        7.608583    0.345005    0.825841
     31          1           0       -0.450900    3.614002    1.888737
     32          1           0        1.238422    3.709495    1.337063
     33          1           0        0.795720    2.605813    2.660836
     34          1           0       -1.887010   -2.329613    1.000745
     35          1           0       -4.173662   -3.197083    1.106080
     36          1           0       -2.358917    2.129696   -0.863666
     37          1           0       -6.572504    2.410847   -1.389867
     38          1           0       -4.328007    3.399697   -1.600486
     39          1           0        5.609869    1.323538   -0.916416
     40          1           0        5.380660    0.270356   -2.333686
     41          1           0        4.738874   -1.621497   -0.961712
     42          1           0        5.840916   -1.950996    1.130395
     43          1           0        1.008425    0.675255   -1.444526
     44          1           0        0.268492   -1.462219    0.512404
     45          1           0       -0.209488   -1.279617   -1.192367
     46          1           0       -1.717589    1.493305    1.541152
     47          1           0       -0.405751    0.412330    2.068484
     48          1           0       -0.158897    2.451085   -0.180180
     49          1           0        7.235391   -0.998944   -1.729299
     50          1           0        7.765598    0.508650   -1.451446
     51          1           0        3.479646    0.324318    0.737202
 ---------------------------------------------------------------------
 Rotational constants (GHZ):      0.4590770      0.0643692      0.0611431
 Standard basis: 6-31G(d) (6D, 7F)
 There are   466 symmetry adapted basis functions of A   symmetry.
 Integral buffers will be    131072 words long.
 Raffenetti 1 integral format.
 Two-electron integral symmetry is turned on.
   466 basis functions,   876 primitive gaussians,   466 cartesian basis functions
   101 alpha electrons      101 beta electrons
       nuclear repulsion energy      2538.9528862328 Hartrees.
 NAtoms=   51 NActive=   51 NUniq=   51 SFac= 7.50D-01 NAtFMM=   80 NAOKFM=F Big=F
 One-electron integrals computed using PRISM.
 NBasis=   466 RedAO= T  NBF=   466
 NBsUse=   466 1.00D-06 NBFU=   466
 Harris functional with IExCor=  205 diagonalized for initial guess.
 ExpMin= 1.61D-01 ExpMax= 7.00D+03 ExpMxC= 1.05D+03 IAcc=1 IRadAn=         1 AccDes= 0.00D+00
 HarFok:  IExCor=  205 AccDes= 0.00D+00 IRadAn=         1 IDoV= 1
 ScaDFX=  1.000000  1.000000  1.000000  1.000000
 FoFCou: FMM=F IPFlag=           0 FMFlag=      100000 FMFlg1=           0
         NFxFlg=           0 DoJE=T BraDBF=F KetDBF=T FulRan=T
         Omega=  0.000000  0.000000  1.000000  0.000000  0.000000 ICntrl=     500 IOpCl=  0
         NMat0=    1 NMatS0=    1 NMatT0=    0 NMatD0=    1 NMtDS0=    0 NMtDT0=    0
         I1Cent=           4 NGrid=           0.
 Petite list used in FoFCou.
 Initial guess orbital symmetries:
       Occupied  (A) (A) (A) (A) (A) (A) (A) (A) (A) (A) (A) (A)
                 (A) (A) (A) (A) (A) (A) (A) (A) (A) (A) (A) (A)
                 (A) (A) (A) (A) (A) (A) (A) (A) (A) (A) (A) (A)
                 (A) (A) (A) (A) (A) (A) (A) (A) (A) (A) (A) (A)
                 (A) (A) (A) (A) (A) (A) (A) (A) (A) (A) (A) (A)
                 (A) (A) (A) (A) (A) (A) (A) (A) (A) (A) (A) (A)
                 (A) (A) (A) (A) (A) (A) (A) (A) (A) (A) (A) (A)
                 (A) (A) (A) (A) (A) (A) (A) (A) (A) (A) (A) (A)
                 (A) (A) (A) (A) (A)
       Virtual   (A) (A) (A) (A) (A) (A) (A) (A) (A) (A) (A) (A)
                 (A) (A) (A) (A) (A) (A) (A) (A) (A) (A) (A) (A)
                 (A) (A) (A) (A) (A) (A) (A) (A) (A) (A) (A) (A)
                 (A) (A) (A) (A) (A) (A) (A) (A) (A) (A) (A) (A)
                 (A) (A) (A) (A) (A) (A) (A) (A) (A) (A) (A) (A)
                 (A) (A) (A) (A) (A) (A) (A) (A) (A) (A) (A) (A)
                 (A) (A) (A) (A) (A) (A) (A) (A) (A) (A) (A) (A)
                 (A) (A) (A) (A) (A) (A) (A) (A) (A) (A) (A) (A)
                 (A) (A) (A) (A) (A) (A) (A) (A) (A) (A) (A) (A)
                 (A) (A) (A) (A) (A) (A) (A) (A) (A) (A) (A) (A)
                 (A) (A) (A) (A) (A) (A) (A) (A) (A) (A) (A) (A)
                 (A) (A) (A) (A) (A) (A) (A) (A) (A) (A) (A) (A)
                 (A) (A) (A) (A) (A) (A) (A) (A) (A) (A) (A) (A)
                 (A) (A) (A) (A) (A) (A) (A) (A) (A) (A) (A) (A)
                 (A) (A) (A) (A) (A) (A) (A) (A) (A) (A) (A) (A)
                 (A) (A) (A) (A) (A) (A) (A) (A) (A) (A) (A) (A)
                 (A) (A) (A) (A) (A) (A) (A) (A) (A) (A) (A) (A)
                 (A) (A) (A) (A) (A) (A) (A) (A) (A) (A) (A) (A)
                 (A) (A) (A) (A) (A) (A) (A) (A) (A) (A) (A) (A)
                 (A) (A) (A) (A) (A) (A) (A) (A) (A) (A) (A) (A)
                 (A) (A) (A) (A) (A) (A) (A) (A) (A) (A) (A) (A)
                 (A) (A) (A) (A) (A) (A) (A) (A) (A) (A) (A) (A)
                 (A) (A) (A) (A) (A) (A) (A) (A) (A) (A) (A) (A)
                 (A) (A) (A) (A) (A) (A) (A) (A) (A) (A) (A) (A)
                 (A) (A) (A) (A) (A) (A) (A) (A) (A) (A) (A) (A)
                 (A) (A) (A) (A) (A) (A) (A) (A) (A) (A) (A) (A)
                 (A) (A) (A) (A) (A) (A) (A) (A) (A) (A) (A) (A)
                 (A) (A) (A) (A) (A) (A) (A) (A) (A) (A) (A) (A)
                 (A) (A) (A) (A) (A) (A) (A) (A) (A) (A) (A) (A)
                 (A) (A) (A) (A) (A) (A) (A) (A) (A) (A) (A) (A)
                 (A) (A) (A) (A) (A)
 The electronic state of the initial guess is 1-A.
 Requested convergence on RMS density matrix=1.00D-08 within 128 cycles.
 Requested convergence on MAX density matrix=1.00D-06.
 Requested convergence on             energy=1.00D-06.
 No special actions if energy rises.
 Integral accuracy reduced to 1.0D-05 until final iterations.
 Initial convergence to 1.0D-05 achieved.  Increase integral accuracy.
 SCF Done:  E(RHF) =  -1291.91779780     A.U. after   17 cycles
             Convg  =    0.3139D-08             -V/T =  2.0017

 **********************************************************************

            Population analysis using the SCF density.

 **********************************************************************

 Orbital symmetries:
 BldTbl:  Degeneracy threshold= 1.00D-02
       Occupied  (A) (A) (A) (A) (A) (A) (A) (A) (A) (A) (A) (A)
                 (A) (A) (A) (A) (A) (A) (A) (A) (A) (A) (A) (A)
                 (A) (A) (A) (A) (A) (A) (A) (A) (A) (A) (A) (A)
                 (A) (A) (A) (A) (A) (A) (A) (A) (A) (A) (A) (A)
                 (A) (A) (A) (A) (A) (A) (A) (A) (A) (A) (A) (A)
                 (A) (A) (A) (A) (A) (A) (A) (A) (A) (A) (A) (A)
                 (A) (A) (A) (A) (A) (A) (A) (A) (A) (A) (A) (A)
                 (A) (A) (A) (A) (A) (A) (A) (A) (A) (A) (A) (A)
                 (A) (A) (A) (A) (A)
       Virtual   (A) (A) (A) (A) (A) (A) (A) (A) (A) (A) (A) (A)
                 (A) (A) (A) (A) (A) (A) (A) (A) (A) (A) (A) (A)
                 (A) (A) (A) (A) (A) (A) (A) (A) (A) (A) (A) (A)
                 (A) (A) (A) (A) (A) (A) (A) (A) (A) (A) (A) (A)
                 (A) (A) (A) (A) (A) (A) (A) (A) (A) (A) (A) (A)
                 (A) (A) (A) (A) (A) (A) (A) (A) (A) (A) (A) (A)
                 (A) (A) (A) (A) (A) (A) (A) (A) (A) (A) (A) (A)
                 (A) (A) (A) (A) (A) (A) (A) (A) (A) (A) (A) (A)
                 (A) (A) (A) (A) (A) (A) (A) (A) (A) (A) (A) (A)
                 (A) (A) (A) (A) (A) (A) (A) (A) (A) (A) (A) (A)
                 (A) (A) (A) (A) (A) (A) (A) (A) (A) (A) (A) (A)
                 (A) (A) (A) (A) (A) (A) (A) (A) (A) (A) (A) (A)
                 (A) (A) (A) (A) (A) (A) (A) (A) (A) (A) (A) (A)
                 (A) (A) (A) (A) (A) (A) (A) (A) (A) (A) (A) (A)
                 (A) (A) (A) (A) (A) (A) (A) (A) (A) (A) (A) (A)
                 (A) (A) (A) (A) (A) (A) (A) (A) (A) (A) (A) (A)
                 (A) (A) (A) (A) (A) (A) (A) (A) (A) (A) (A) (A)
                 (A) (A) (A) (A) (A) (A) (A) (A) (A) (A) (A) (A)
                 (A) (A) (A) (A) (A) (A) (A) (A) (A) (A) (A) (A)
                 (A) (A) (A) (A) (A) (A) (A) (A) (A) (A) (A) (A)
                 (A) (A) (A) (A) (A) (A) (A) (A) (A) (A) (A) (A)
                 (A) (A) (A) (A) (A) (A) (A) (A) (A) (A) (A) (A)
                 (A) (A) (A) (A) (A) (A) (A) (A) (A) (A) (A) (A)
                 (A) (A) (A) (A) (A) (A) (A) (A) (A) (A) (A) (A)
                 (A) (A) (A) (A) (A) (A) (A) (A) (A) (A) (A) (A)
                 (A) (A) (A) (A) (A) (A) (A) (A) (A) (A) (A) (A)
                 (A) (A) (A) (A) (A) (A) (A) (A) (A) (A) (A) (A)
                 (A) (A) (A) (A) (A) (A) (A) (A) (A) (A) (A) (A)
                 (A) (A) (A) (A) (A) (A) (A) (A) (A) (A) (A) (A)
                 (A) (A) (A) (A) (A) (A) (A) (A) (A) (A) (A) (A)
                 (A) (A) (A) (A) (A)
 The electronic state is 1-A.
 Alpha  occ. eigenvalues --  -26.45147 -20.67689 -20.65072 -15.90403 -15.73494
 Alpha  occ. eigenvalues --  -15.65050 -15.63463 -15.60063 -11.50360 -11.48538
 Alpha  occ. eigenvalues --  -11.48273 -11.47750 -11.45867 -11.40582 -11.37822
 Alpha  occ. eigenvalues --  -11.36402 -11.36190 -11.35707 -11.34654 -11.34380
 Alpha  occ. eigenvalues --  -11.33067 -11.32943 -11.32390 -11.32376 -11.30875
 Alpha  occ. eigenvalues --  -11.30872 -11.30770 -11.30286  -1.75154  -1.55694
 Alpha  occ. eigenvalues --   -1.50911  -1.48011  -1.38275  -1.34801  -1.32328
 Alpha  occ. eigenvalues --   -1.26404  -1.25889  -1.21960  -1.21317  -1.17867
 Alpha  occ. eigenvalues --   -1.16625  -1.11689  -1.09696  -1.08719  -1.07236
 Alpha  occ. eigenvalues --   -1.03448  -1.01466  -1.00752  -0.97856  -0.95022
 Alpha  occ. eigenvalues --   -0.94475  -0.93491  -0.92939  -0.90739  -0.88132
 Alpha  occ. eigenvalues --   -0.87746  -0.85597  -0.84858  -0.82339  -0.81724
 Alpha  occ. eigenvalues --   -0.80921  -0.79835  -0.79041  -0.77743  -0.77092
 Alpha  occ. eigenvalues --   -0.76962  -0.76320  -0.75511  -0.74116  -0.73402
 Alpha  occ. eigenvalues --   -0.72473  -0.71901  -0.70682  -0.70226  -0.69336
 Alpha  occ. eigenvalues --   -0.67774  -0.67631  -0.66271  -0.65207  -0.65037
 Alpha  occ. eigenvalues --   -0.64482  -0.64328  -0.63407  -0.62991  -0.62792
 Alpha  occ. eigenvalues --   -0.61166  -0.59182  -0.58461  -0.58011  -0.56793
 Alpha  occ. eigenvalues --   -0.55525  -0.54669  -0.53970  -0.52751  -0.51475
 Alpha  occ. eigenvalues --   -0.50416  -0.47865  -0.46909  -0.44611  -0.39821
 Alpha  occ. eigenvalues --   -0.36461
 Alpha virt. eigenvalues --   -0.02120  -0.00248   0.01159   0.05085   0.05905
 Alpha virt. eigenvalues --    0.07336   0.08429   0.09678   0.10572   0.11819
 Alpha virt. eigenvalues --    0.12471   0.12936   0.13810   0.14871   0.15530
 Alpha virt. eigenvalues --    0.15852   0.17106   0.17293   0.18157   0.18592
 Alpha virt. eigenvalues --    0.19134   0.19521   0.20046   0.20191   0.21409
 Alpha virt. eigenvalues --    0.22329   0.22781   0.22951   0.24297   0.24506
 Alpha virt. eigenvalues --    0.25868   0.25947   0.26441   0.26554   0.27658
 Alpha virt. eigenvalues --    0.28924   0.29416   0.30917   0.31646   0.32630
 Alpha virt. eigenvalues --    0.33312   0.33638   0.33762   0.35414   0.35855
 Alpha virt. eigenvalues --    0.37394   0.38744   0.38860   0.39952   0.40444
 Alpha virt. eigenvalues --    0.41562   0.42722   0.44504   0.48852   0.49902
 Alpha virt. eigenvalues --    0.50277   0.52200   0.53052   0.54109   0.54820
 Alpha virt. eigenvalues --    0.55831   0.55974   0.59953   0.61086   0.62402
 Alpha virt. eigenvalues --    0.62916   0.63286   0.63685   0.64282   0.65027
 Alpha virt. eigenvalues --    0.66314   0.66654   0.66909   0.67311   0.68409
 Alpha virt. eigenvalues --    0.68915   0.69844   0.69888   0.70378   0.71040
 Alpha virt. eigenvalues --    0.71793   0.72488   0.73140   0.73460   0.74275
 Alpha virt. eigenvalues --    0.75198   0.75418   0.76510   0.77246   0.77604
 Alpha virt. eigenvalues --    0.77752   0.78176   0.78514   0.79099   0.79221
 Alpha virt. eigenvalues --    0.80724   0.81192   0.82087   0.82841   0.83965
 Alpha virt. eigenvalues --    0.84112   0.85440   0.85995   0.86052   0.86699
 Alpha virt. eigenvalues --    0.88800   0.89305   0.89673   0.90197   0.91273
 Alpha virt. eigenvalues --    0.91463   0.91650   0.92174   0.93212   0.93479
 Alpha virt. eigenvalues --    0.94339   0.94968   0.95498   0.96741   0.97083
 Alpha virt. eigenvalues --    0.98489   0.99875   1.00218   1.01274   1.01396
 Alpha virt. eigenvalues --    1.01641   1.02369   1.02875   1.03385   1.03701
 Alpha virt. eigenvalues --    1.04196   1.05043   1.05274   1.06491   1.06672
 Alpha virt. eigenvalues --    1.07196   1.07682   1.08216   1.09458   1.09788
 Alpha virt. eigenvalues --    1.10440   1.10779   1.11567   1.13449   1.14196
 Alpha virt. eigenvalues --    1.14863   1.15479   1.15916   1.16388   1.17253
 Alpha virt. eigenvalues --    1.18954   1.20052   1.20862   1.22246   1.22795
 Alpha virt. eigenvalues --    1.24109   1.25323   1.25978   1.27197   1.29019
 Alpha virt. eigenvalues --    1.29592   1.30253   1.30384   1.31772   1.33641
 Alpha virt. eigenvalues --    1.35818   1.37532   1.39733   1.40394   1.42265
 Alpha virt. eigenvalues --    1.42416   1.43448   1.43985   1.45051   1.45814
 Alpha virt. eigenvalues --    1.47019   1.48311   1.50335   1.51203   1.53122
 Alpha virt. eigenvalues --    1.53924   1.54276   1.54979   1.55395   1.57430
 Alpha virt. eigenvalues --    1.57845   1.58725   1.60171   1.61777   1.63297
 Alpha virt. eigenvalues --    1.63428   1.64301   1.65063   1.65739   1.68352
 Alpha virt. eigenvalues --    1.69837   1.70556   1.72087   1.73362   1.74290
 Alpha virt. eigenvalues --    1.74542   1.75780   1.76275   1.77456   1.79265
 Alpha virt. eigenvalues --    1.80595   1.83347   1.85836   1.87534   1.87738
 Alpha virt. eigenvalues --    1.88176   1.88684   1.90151   1.90661   1.92452
 Alpha virt. eigenvalues --    1.93904   1.95519   1.96207   1.96835   1.98221
 Alpha virt. eigenvalues --    1.99632   2.00478   2.01205   2.01855   2.02101
 Alpha virt. eigenvalues --    2.03204   2.03662   2.04917   2.05782   2.07063
 Alpha virt. eigenvalues --    2.07494   2.08003   2.08916   2.10481   2.11472
 Alpha virt. eigenvalues --    2.13276   2.13743   2.14470   2.15124   2.15328
 Alpha virt. eigenvalues --    2.17676   2.17958   2.18315   2.19742   2.19801
 Alpha virt. eigenvalues --    2.21048   2.21754   2.22252   2.22862   2.23699
 Alpha virt. eigenvalues --    2.24272   2.26087   2.26388   2.27232   2.27531
 Alpha virt. eigenvalues --    2.28774   2.30094   2.30801   2.31170   2.31678
 Alpha virt. eigenvalues --    2.32528   2.35515   2.35778   2.36545   2.38579
 Alpha virt. eigenvalues --    2.39866   2.41577   2.41812   2.43500   2.44318
 Alpha virt. eigenvalues --    2.44431   2.45425   2.47362   2.48348   2.49066
 Alpha virt. eigenvalues --    2.50214   2.50944   2.51858   2.52966   2.54238
 Alpha virt. eigenvalues --    2.55298   2.56914   2.58052   2.59652   2.59731
 Alpha virt. eigenvalues --    2.60914   2.63212   2.63987   2.66145   2.66398
 Alpha virt. eigenvalues --    2.67464   2.70016   2.70431   2.71362   2.74161
 Alpha virt. eigenvalues --    2.75406   2.76669   2.79098   2.80082   2.80573
 Alpha virt. eigenvalues --    2.81357   2.84870   2.85863   2.86274   2.88346
 Alpha virt. eigenvalues --    2.89073   2.90606   2.91231   2.93561   2.94762
 Alpha virt. eigenvalues --    2.95995   2.98382   3.00308   3.01741   3.03206
 Alpha virt. eigenvalues --    3.04042   3.04640   3.07237   3.08888   3.10142
 Alpha virt. eigenvalues --    3.11338   3.14502   3.16108   3.16990   3.19751
 Alpha virt. eigenvalues --    3.20363   3.21207   3.30054   3.30829   3.34489
 Alpha virt. eigenvalues --    3.36047   3.41011   3.46269   3.49999   3.65060
 Alpha virt. eigenvalues --    3.75271   3.85945   4.13038   4.31289   4.37945
 Alpha virt. eigenvalues --    4.41672   4.42272   4.44563   4.45434   4.47309
 Alpha virt. eigenvalues --    4.48110   4.50098   4.52974   4.55572   4.57202
 Alpha virt. eigenvalues --    4.60581   4.62759   4.63008   4.66382   4.70413
 Alpha virt. eigenvalues --    4.72492   4.81339   4.82782   4.87177   4.88017
 Alpha virt. eigenvalues --    4.93730   4.97956   5.00538   5.05673   5.25288
          Condensed to atoms (all electrons):
 Mulliken atomic charges:
              1
     1  C   -0.274643
     2  C   -0.495276
     3  C    0.326932
     4  C   -0.246186
     5  C   -0.159929
     6  C   -0.025808
     7  C    0.294497
     8  C   -0.060419
     9  C   -0.118363
    10  C    0.093377
    11  C   -0.274453
    12  C   -0.230940
    13  C    0.299053
    14  C   -0.021639
    15  C    0.279721
    16  C    0.115823
    17  C   -0.104876
    18  C   -0.122840
    19  C    0.168795
    20  C    0.762328
    21  F   -0.403561
    22  N   -0.752518
    23  N   -0.830495
    24  N   -0.740892
    25  N   -0.581509
    26  N   -0.439378
    27  O   -0.723142
    28  O   -0.635968
    29  H    0.276094
    30  H    0.293161
    31  H    0.185842
    32  H    0.179261
    33  H    0.177470
    34  H    0.217699
    35  H    0.254121
    36  H    0.227750
    37  H    0.228984
    38  H    0.224508
    39  H    0.273137
    40  H    0.283843
    41  H    0.282182
    42  H    0.246528
    43  H    0.213427
    44  H    0.161461
    45  H    0.231349
    46  H    0.203502
    47  H    0.175686
    48  H    0.170434
    49  H    0.469838
    50  H    0.478361
    51  H    0.447673
 Sum of Mulliken atomic charges =   1.00000
 Mulliken charges with hydrogens summed into heavy atoms:
              1
     1  C    0.294612
     2  C    0.047296
     3  C    0.326932
     4  C   -0.028487
     5  C    0.094192
     6  C   -0.025808
     7  C    0.294497
     8  C   -0.060419
     9  C    0.109387
    10  C    0.322361
    11  C   -0.049945
    12  C    0.326040
    13  C    0.299053
    14  C    0.260543
    15  C    0.526249
    16  C    0.329250
    17  C    0.287934
    18  C    0.256348
    19  C    0.339228
    20  C    0.762328
    21  F   -0.403561
    22  N    0.195681
    23  N   -0.382823
    24  N   -0.740892
    25  N   -0.581509
    26  N   -0.439378
    27  O   -0.723142
    28  O   -0.635968
 Sum of Mulliken charges with hydrogens summed into heavy atoms =   1.00000
 DipInt: DoE/N= T F RetVal/Mat= T F Init=T NMatP=  1 IDeriv=0 Min/MaxMlt=  0  4
 Entering OneElI...
 OneElI was handed    32999629 working-precision words.
 Multipole integrals L=0 to 4 MinM= 0 MaxM= 0.
 Requested accuracy = 0.1000D-12
 PrsmSu:  NPrtUS=   1 ThrOK=F IAlg=1
 PRISM was handed    32275122 working-precision words and  7990 shell-pairs
 IPart=  0 NShTot=        7990 NBatch=          51 AvBLen=       156.7
 Electronic moments (au):
       -202.00000000         14.55447053          1.52996351         -1.30029874
     -14156.32138143      -1632.20915724       -803.39188103        -26.41956943
        -19.13981779         -6.30145180      -8865.03700648      -1428.86090766
       -255.57754981       6532.66914189      11188.34190652       3085.07960998
      -2017.51111948       -662.67702436       -855.07500393      -2933.97919255
   -1823609.46170052     -35629.63566005      -8516.18509731     -38129.08862769
       4345.54155427      -8856.98302216      -1965.44828743      -1493.02251383
      -2012.18722504    -104833.22028763     -53839.85580607      -8579.39678539
      28052.81939211      -1385.43988116       3567.80395549
 Electronic spatial extent (au):  <R**2>=          16591.9224
 DipInt: DoE/N= F T RetVal/Mat= T F Init=T NMatP=  1 IDeriv=0 Min/MaxMlt=  0  4
 Nuclear    moments (au):
        203.00000000          0.00000000          0.00000000          0.00000000
      14166.32238831       1522.40245078        687.17111059          0.00000000
          0.00000000          0.00000000      12236.02226542       1479.40322224
        248.45148494      -6422.56728976     -11004.00180534      -3466.29015537
       2138.88262917        681.37687063        862.82330648       2938.86167816
    1795553.40984050      30049.63161704       5883.17891010      32112.48569422
      -7706.14010767       8115.99015422       1818.40894058       1261.06617266
       2008.86355218      95811.33876232      46097.17528727       7222.45318623
     -28301.51856203       1594.98201518      -3678.03776829
 Total      moments (au):
          1.00000000         14.55447053          1.52996351         -1.30029874
         10.00100688       -109.80670647       -116.22077045        -26.41956943
        -19.13981779         -6.30145180       3370.98525893         50.54231459
         -7.12606486        110.10185213        184.34010117       -381.21054540
        121.37150969         18.69984627          7.74830255          4.88248561
     -28056.05186002      -5580.00404301      -2633.00618721      -6016.60293347
      -3360.59855340       -740.99286795       -147.03934685       -231.95634117
         -3.32367286      -9021.88152531      -7742.68051880      -1356.94359916
       -248.69916991        209.54213402       -110.23381280
 Traceless Quadrup. (au):
         82.00983022        -37.79788312        -44.21194710        -26.41956943
        -19.13981779         -6.30145180
 Charge=              1.0000 electrons
 Dipole moment (field-independent basis, Debye):
    X=             36.9938    Y=              3.8888    Z=             -3.3050  Tot=             37.3441
 Quadrupole moment (field-independent basis, Debye-Ang):
   XX=             13.4517   YY=           -147.6938   ZZ=           -156.3209
   XY=            -35.5352   XZ=            -25.7437   YZ=             -8.4757
 Traceless Quadrupole moment (field-independent basis, Debye-Ang):
   XX=            110.3060   YY=            -50.8394   ZZ=            -59.4666
   XY=            -35.5352   XZ=            -25.7437   YZ=             -8.4757
 Octapole moment (field-independent basis, Debye-Ang**2):
  XXX=           2399.3373  YYY=             35.9741  ZZZ=             -5.0721  XYY=             78.3663
  XXY=            131.2062  XXZ=           -271.3310  XZZ=             86.3876  YZZ=             13.3098
  YYZ=              5.5149  XYZ=              3.4752
 Hexadecapole moment (field-independent basis, Debye-Ang**3):
 XXXX=         -10567.2538 YYYY=          -2101.6970 ZZZZ=           -991.7163 XXXY=          -2266.1410
 XXXZ=          -1265.7625 YYYX=           -279.0934 YYYZ=            -55.3821 ZZZX=            -87.3659
 ZZZY=             -1.2519 XXYY=          -3398.0730 XXZZ=          -2916.2646 YYZZ=           -511.0900
 XXYZ=            -93.6720 YYXZ=             78.9236 ZZXY=            -41.5193
 N-N= 2.538952886233D+03 E-N=-8.080150031007D+03  KE= 1.289753008785D+03
 Entering OneElI...
 OneElI was handed    32563576 working-precision words.
 Calculate electrostatic properties
    NBasis =   466  MinDer = 0  MaxDer = 0
    NGrid  =    51  NMatD  =   1
 Requested accuracy = 0.1000D-12
 PrsmSu:  NPrtUS=   1 ThrOK=F IAlg=1
 PRISM was handed    31917827 working-precision words and  6848 shell-pairs
 IPart=  0 NShTot=      349248 NBatch=        6848 AvBLen=        51.0
 --------------------------------------------------------
       Center         ----      EFG at Nuclei      ----
                      3XX-RR        3YY-RR        3ZZ-RR
 --------------------------------------------------------
     1   Atom        0.214958      0.188806     -0.403764
     2   Atom        0.014589     -0.010117     -0.004473
     3   Atom        0.018828      0.218761     -0.237589
     4   Atom        0.123011      0.119489     -0.242500
     5   Atom        0.219415      0.101523     -0.320937
     6   Atom       -0.013987      0.099999     -0.086012
     7   Atom        0.149345      0.122074     -0.271419
     8   Atom        0.120097      0.081964     -0.202061
     9   Atom        0.213856      0.115866     -0.329722
    10   Atom        0.266541      0.091733     -0.358274
    11   Atom        0.164718      0.065660     -0.230378
    12   Atom       -0.411005      0.168516      0.242489
    13   Atom        0.257365     -0.087154     -0.170210
    14   Atom       -0.164133      0.109314      0.054819
    15   Atom        0.098384      0.079494     -0.177878
    16   Atom        0.119238     -0.056037     -0.063201
    17   Atom       -0.139407     -0.003443      0.142850
    18   Atom        0.131164     -0.031002     -0.100161
    19   Atom       -0.231410      0.043965      0.187445
    20   Atom        0.207194     -0.095410     -0.111785
    21   Atom        1.082544      0.341709     -1.424253
    22   Atom        0.035197     -0.016163     -0.019034
    23   Atom       -0.654748      0.579164      0.075584
    24   Atom       -0.734236      0.269936      0.464301
    25   Atom        0.815229     -0.172908     -0.642321
    26   Atom        0.676892     -0.244415     -0.432477
    27   Atom       -0.109516     -0.390606      0.500122
    28   Atom        1.498611     -0.798795     -0.699816
    29   Atom       -0.027574     -0.096868      0.124442
    30   Atom        0.105612     -0.131950      0.026338
    31   Atom       -0.169374      0.027650      0.141724
    32   Atom       -0.075765     -0.017551      0.093316
    33   Atom        0.113357      0.074969     -0.188326
    34   Atom       -0.123076      0.005057      0.118019
    35   Atom        0.133945     -0.235816      0.101871
    36   Atom       -0.239219      0.080531      0.158688
    37   Atom       -0.135318      0.013752      0.121566
    38   Atom        0.140745     -0.243499      0.102754
    39   Atom        0.127819     -0.226820      0.099002
    40   Atom        0.095653      0.150863     -0.246516
    41   Atom        0.130255     -0.169864      0.039609
    42   Atom        0.142827     -0.239687      0.096860
    43   Atom        0.129831      0.043699     -0.173531
    44   Atom        0.117066     -0.040983     -0.076082
    45   Atom        0.118652      0.043929     -0.162581
    46   Atom       -0.152844      0.040410      0.112433
    47   Atom        0.090429      0.030059     -0.120488
    48   Atom        0.097201      0.063459     -0.160660
    49   Atom        0.175240     -0.182221      0.006981
    50   Atom       -0.063310     -0.075447      0.138757
    51   Atom        0.145432      0.020519     -0.165950
 --------------------------------------------------------
                        XY            XZ            YZ
 --------------------------------------------------------
     1   Atom       -0.003314     -0.039869      0.168304
     2   Atom       -0.009461     -0.006324     -0.031704
     3   Atom       -0.044707      0.062545     -0.183908
     4   Atom        0.043549      0.039833     -0.098451
     5   Atom        0.031093      0.046932     -0.215732
     6   Atom       -0.096336      0.053873     -0.105661
     7   Atom        0.070789      0.018928     -0.176925
     8   Atom        0.015547      0.011854     -0.120165
     9   Atom       -0.024764      0.074301     -0.215890
    10   Atom       -0.002491      0.065316     -0.220338
    11   Atom       -0.001979      0.044667     -0.150765
    12   Atom        0.182395     -0.026043      0.006593
    13   Atom        0.178825     -0.028377     -0.017772
    14   Atom        0.091417      0.084353      0.100377
    15   Atom        0.098290      0.167600     -0.376105
    16   Atom        0.020775     -0.023005     -0.292191
    17   Atom        0.097310      0.098310     -0.023328
    18   Atom       -0.047606     -0.049801     -0.159840
    19   Atom        0.302977      0.114420     -0.047714
    20   Atom       -0.206648      0.036094      0.441308
    21   Atom        0.699802      0.999067     -1.945441
    22   Atom       -0.017471      0.025585     -0.001693
    23   Atom        0.177335     -0.030148     -0.617987
    24   Atom       -0.022889      0.078372     -1.051326
    25   Atom        0.572654     -0.090951     -0.157438
    26   Atom        0.529523     -0.105019     -0.019620
    27   Atom        0.911330     -0.089897     -1.625285
    28   Atom       -0.387126      0.374397     -0.253286
    29   Atom        0.213656     -0.022252      0.033389
    30   Atom       -0.120281     -0.071624     -0.161218
    31   Atom        0.196433      0.054712     -0.041407
    32   Atom       -0.200449      0.114092      0.094588
    33   Atom        0.053575     -0.122428      0.155976
    34   Atom        0.195839     -0.118117      0.098468
    35   Atom       -0.068318      0.024904      0.161736
    36   Atom       -0.174604      0.025480      0.018399
    37   Atom        0.195434     -0.106369      0.078553
    38   Atom       -0.044969      0.015522      0.169876
    39   Atom        0.031726      0.008370     -0.145738
    40   Atom        0.004532     -0.116275     -0.016695
    41   Atom       -0.043029     -0.019683     -0.177779
    42   Atom       -0.005117      0.007771      0.119484
    43   Atom        0.044828     -0.071368      0.173907
    44   Atom        0.067010     -0.067616      0.214817
    45   Atom       -0.047239     -0.076280     -0.182485
    46   Atom        0.171018      0.101020     -0.069755
    47   Atom        0.084264     -0.135039      0.170225
    48   Atom        0.070797     -0.115192      0.161721
    49   Atom        0.062179      0.045433     -0.255001
    50   Atom       -0.257127      0.109381      0.109130
    51   Atom        0.033467      0.038587     -0.288200
 --------------------------------------------------------


 ---------------------------------------------------------------------------------
              Nuclear Quadrupole in Principal Axis System
 ---------------------------------------------------------------------------------

       Atom             a.u.   MegaHertz   Gauss  10(-4) cm-1        Axes

              Baa    -0.4504   -60.435   -21.565   -20.159  0.0566 -0.2540  0.9656
     1 C(13)  Bbb     0.2096    28.121    10.034     9.380  0.8697  0.4875  0.0772
              Bcc     0.2408    32.314    11.530    10.779 -0.4903  0.8354  0.2485
 
              Baa    -0.0414    -5.554    -1.982    -1.852  0.1972  0.7268  0.6580
     2 C(13)  Bbb     0.0165     2.214     0.790     0.738  0.9593 -0.0045 -0.2825
              Bcc     0.0249     3.340     1.192     1.114  0.2023 -0.6869  0.6981
 
              Baa    -0.3085   -41.404   -14.774   -13.811 -0.1362  0.3159  0.9390
     3 C(13)  Bbb     0.0105     1.412     0.504     0.471  0.9654  0.2552  0.0542
              Bcc     0.2980    39.991    14.270    13.340 -0.2224  0.9138 -0.3398
 
              Baa    -0.2737   -36.730   -13.106   -12.252 -0.1242  0.2539  0.9592
     4 C(13)  Bbb     0.1038    13.930     4.971     4.647  0.7785 -0.5745  0.2529
              Bcc     0.1699    22.800     8.136     7.605  0.6153  0.7781 -0.1263
 
              Baa    -0.4164   -55.883   -19.940   -18.641 -0.0867  0.3875  0.9178
     5 C(13)  Bbb     0.1891    25.378     9.055     8.465 -0.2837  0.8735 -0.3956
              Bcc     0.2273    30.505    10.885    10.175  0.9550  0.2947 -0.0342
 
              Baa    -0.1349   -18.103    -6.460    -6.038 -0.1195  0.3661  0.9229
     6 C(13)  Bbb    -0.0685    -9.198    -3.282    -3.068  0.8841  0.4622 -0.0689
              Bcc     0.2034    27.301     9.742     9.106 -0.4517  0.8077 -0.3789
 
              Baa    -0.3431   -46.038   -16.427   -15.357 -0.0882  0.3658  0.9265
     7 C(13)  Bbb     0.1096    14.713     5.250     4.908  0.8019 -0.5257  0.2839
              Bcc     0.2334    31.325    11.178    10.449  0.5909  0.7680 -0.2470
 
              Baa    -0.2468   -33.121   -11.818   -11.048 -0.0449  0.3448  0.9376
     8 C(13)  Bbb     0.1126    15.108     5.391     5.040  0.7859 -0.5672  0.2462
              Bcc     0.1342    18.012     6.427     6.008  0.6168  0.7479 -0.2455
 
              Baa    -0.4228   -56.732   -20.243   -18.924 -0.0938  0.3667  0.9256
     9 C(13)  Bbb     0.1601    21.488     7.667     7.168  0.6459  0.7299 -0.2237
              Bcc     0.2626    35.244    12.576    11.756  0.7577 -0.5768  0.3053
 
              Baa    -0.4531   -60.805   -21.697   -20.282 -0.0826  0.3733  0.9240
    10 C(13)  Bbb     0.1742    23.379     8.342     7.798  0.2654  0.9020 -0.3407
              Bcc     0.2789    37.426    13.355    12.484  0.9606 -0.2171  0.1735
 
              Baa    -0.2972   -39.879   -14.230   -13.302 -0.0873  0.3818  0.9201
    11 C(13)  Bbb     0.1212    16.267     5.805     5.426  0.3734  0.8688 -0.3251
              Bcc     0.1760    23.612     8.425     7.876  0.9235 -0.3152  0.2185
 
              Baa    -0.4647   -62.352   -22.249   -20.798  0.9601 -0.2770  0.0379
    12 C(13)  Bbb     0.2211    29.671    10.587     9.897  0.2755  0.9605  0.0394
              Bcc     0.2435    32.681    11.661    10.901 -0.0474 -0.0274  0.9985
 
              Baa    -0.1747   -23.449    -8.367    -7.822 -0.1072  0.4032  0.9088
    13 C(13)  Bbb    -0.1608   -21.580    -7.700    -7.198 -0.3818  0.8273 -0.4120
              Bcc     0.3356    45.030    16.068    15.020  0.9180  0.3911 -0.0652
 
              Baa    -0.2042   -27.397    -9.776    -9.139  0.9514 -0.2035 -0.2310
    14 C(13)  Bbb    -0.0213    -2.863    -1.022    -0.955  0.0528 -0.6314  0.7737
              Bcc     0.2255    30.260    10.798    10.094  0.3033  0.7483  0.5900
 
              Baa    -0.5084   -68.228   -24.346   -22.759 -0.3040  0.5489  0.7786
    15 C(13)  Bbb     0.1586    21.286     7.596     7.100  0.9489  0.2476  0.1959
              Bcc     0.3498    46.942    16.750    15.658 -0.0853  0.7984 -0.5961
 
              Baa    -0.3518   -47.213   -16.847   -15.749  0.0038  0.7026  0.7116
    16 C(13)  Bbb     0.1113    14.942     5.332     4.984  0.9689 -0.1785  0.1712
              Bcc     0.2405    32.272    11.515    10.765  0.2473  0.6888 -0.6815
 
              Baa    -0.2170   -29.116   -10.389    -9.712  0.8664 -0.4237 -0.2642
    17 C(13)  Bbb     0.0429     5.762     2.056     1.922  0.3898  0.9046 -0.1724
              Bcc     0.1740    23.354     8.333     7.790  0.3120  0.0463  0.9489
 
              Baa    -0.2418   -32.442   -11.576   -10.822  0.1811  0.6199  0.7635
    18 C(13)  Bbb     0.0973    13.052     4.657     4.354  0.1187  0.7569 -0.6427
              Bcc     0.1445    19.390     6.919     6.468  0.9763 -0.2070 -0.0635
 
              Baa    -0.4499   -60.373   -21.543   -20.138  0.8289 -0.5267 -0.1882
    19 C(13)  Bbb     0.1993    26.740     9.541     8.919 -0.1150 -0.4898  0.8642
              Bcc     0.2506    33.634    12.001    11.219  0.5474  0.6948  0.4665
 
              Baa    -0.5826   -78.175   -27.895   -26.076  0.2152  0.7042 -0.6766
    20 C(13)  Bbb     0.1629    21.860     7.800     7.292  0.8042  0.2653  0.5319
              Bcc     0.4197    56.316    20.095    18.785 -0.5540  0.6586  0.5092
 
              Baa    -3.0383 -1525.901  -544.479  -508.986 -0.2837  0.5218  0.8045
    21 F(19)  Bbb     1.4306   718.505   256.381   239.668  0.9244 -0.0742  0.3741
              Bcc     1.6076   807.396   288.099   269.318  0.2549  0.8498 -0.4613
 
              Baa    -0.0313    -1.207    -0.431    -0.402 -0.4183 -0.3916  0.8196
    22 N(14)  Bbb    -0.0184    -0.710    -0.253    -0.237  0.0697  0.8858  0.4588
              Bcc     0.0497     1.917     0.684     0.639  0.9056 -0.2491  0.3432
 
              Baa    -0.6865   -26.477    -9.448    -8.832  0.9736 -0.1947 -0.1194
    23 N(14)  Bbb    -0.3244   -12.510    -4.464    -4.173  0.2062  0.5245  0.8261
              Bcc     1.0109    38.987    13.912    13.005  0.0982  0.8288 -0.5508
 
              Baa    -0.7559   -29.153   -10.402    -9.724  0.8816 -0.3280 -0.3393
    24 N(14)  Bbb    -0.6695   -25.823    -9.214    -8.614  0.4707  0.6630  0.5822
              Bcc     1.4254    54.975    19.617    18.338  0.0339 -0.6730  0.7389
 
              Baa    -0.6970   -26.883    -9.592    -8.967 -0.0846  0.3703  0.9251
    25 N(14)  Bbb    -0.3932   -15.165    -5.411    -5.058 -0.4204  0.8284 -0.3701
              Bcc     1.0902    42.048    15.004    14.026  0.9034  0.4202 -0.0856
 
              Baa    -0.4972   -19.174    -6.842    -6.396 -0.4052  0.8171 -0.4100
    26 N(14)  Bbb    -0.4288   -16.540    -5.902    -5.517 -0.1067  0.4031  0.9089
              Bcc     0.9260    35.714    12.744    11.913  0.9080  0.4121 -0.0761
 
              Baa    -1.8975   137.305    48.994    45.800 -0.3695  0.7755  0.5118
    27 O(17)  Bbb    -0.0447     3.235     1.154     1.079  0.8768  0.1086  0.4685
              Bcc     1.9423  -140.540   -50.148   -46.879 -0.3078 -0.6219  0.7201
 
              Baa    -1.0093    73.030    26.059    24.360  0.0311  0.7916  0.6103
    28 O(17)  Bbb    -0.6254    45.255    16.148    15.096 -0.2431 -0.5863  0.7728
              Bcc     1.6347  -118.286   -42.207   -39.456  0.9695 -0.1724  0.1742
 
              Baa    -0.2826  -150.766   -53.797   -50.290 -0.6442  0.7587 -0.0975
    29 H(1)   Bbb     0.1275    68.043    24.279    22.697 -0.1935 -0.0384  0.9803
              Bcc     0.1550    82.724    29.518    27.594  0.7400  0.6504  0.1715
 
              Baa    -0.2828  -150.908   -53.848   -50.337  0.3390  0.7997  0.4955
    30 H(1)   Bbb     0.1266    67.523    24.094    22.523 -0.0835 -0.4991  0.8625
              Bcc     0.1563    83.384    29.754    27.814  0.9371 -0.3338 -0.1024
 
              Baa    -0.3012  -160.680   -57.334   -53.597  0.8399 -0.5210 -0.1525
    31 H(1)   Bbb     0.1439    76.796    27.403    25.616  0.4965  0.6239  0.6035
              Bcc     0.1572    83.883    29.932    27.980 -0.2193 -0.5826  0.7826
 
              Baa    -0.3044  -162.419   -57.955   -54.177  0.7102  0.6114 -0.3491
    32 H(1)   Bbb     0.1475    78.696    28.081    26.250  0.0344  0.4651  0.8846
              Bcc     0.1569    83.724    29.875    27.927  0.7032 -0.6402  0.3093
 
              Baa    -0.3036  -161.985   -57.800   -54.032  0.3052 -0.3994  0.8645
    33 H(1)   Bbb     0.1466    78.210    27.907    26.088  0.2708  0.9067  0.3233
              Bcc     0.1570    83.776    29.893    27.945  0.9130 -0.1355 -0.3849
 
              Baa    -0.3190  -170.181   -60.725   -56.766  0.7595 -0.5598  0.3314
    34 H(1)   Bbb     0.1437    76.652    27.351    25.568  0.6478  0.6971 -0.3072
              Bcc     0.1753    93.529    33.373    31.198 -0.0591  0.4480  0.8921
 
              Baa    -0.3126  -166.794   -59.516   -55.636  0.1606  0.9162 -0.3672
    35 H(1)   Bbb     0.1455    77.643    27.705    25.899  0.9812 -0.1079  0.1601
              Bcc     0.1671    89.151    31.811    29.738 -0.1071  0.3860  0.9163
 
              Baa    -0.3181  -169.706   -60.555   -56.608  0.9130  0.4029 -0.0643
    36 H(1)   Bbb     0.1523    81.246    28.991    27.101 -0.3544  0.7050 -0.6143
              Bcc     0.1658    88.460    31.565    29.507 -0.2022  0.5837  0.7864
 
              Baa    -0.3104  -165.607   -59.093   -55.241  0.7859 -0.5448  0.2926
    37 H(1)   Bbb     0.1472    78.548    28.028    26.201  0.6134  0.7464 -0.2580
              Bcc     0.1632    87.059    31.065    29.040 -0.0778  0.3823  0.9208
 
              Baa    -0.3178  -169.586   -60.512   -56.568  0.1030  0.9210 -0.3758
    38 H(1)   Bbb     0.1454    77.582    27.683    25.879  0.9899 -0.0580  0.1293
              Bcc     0.1724    92.004    32.829    30.689 -0.0973  0.3853  0.9176
 
              Baa    -0.2851  -152.101   -54.273   -50.735 -0.0788  0.9315  0.3552
    39 H(1)   Bbb     0.1299    69.311    24.732    23.120  0.9871  0.0231  0.1583
              Bcc     0.1552    82.790    29.542    27.616 -0.1392 -0.3631  0.9213
 
              Baa    -0.2828  -150.879   -53.837   -50.328  0.2932  0.0337  0.9555
    40 H(1)   Bbb     0.1278    68.190    24.332    22.746  0.8936 -0.3648 -0.2613
              Bcc     0.1550    82.689    29.505    27.582  0.3398  0.9305 -0.1371
 
              Baa    -0.2769  -147.751   -52.721   -49.284  0.1150  0.8630  0.4919
    41 H(1)   Bbb     0.1334    71.182    25.400    23.744  0.8730  0.1485 -0.4646
              Bcc     0.1435    76.569    27.322    25.541  0.4740 -0.4828  0.7364
 
              Baa    -0.2779  -148.284   -52.911   -49.462  0.0172  0.9525 -0.3040
    42 H(1)   Bbb     0.1319    70.364    25.107    23.471 -0.4669  0.2765  0.8400
              Bcc     0.1460    77.920    27.804    25.991  0.8841  0.1275  0.4495
 
              Baa    -0.2869  -153.102   -54.631   -51.069  0.1979 -0.4772  0.8562
    43 H(1)   Bbb     0.1379    73.555    26.246    24.535 -0.4400  0.7373  0.5126
              Bcc     0.1491    79.547    28.384    26.534  0.8759  0.4782  0.0640
 
              Baa    -0.2960  -157.920   -56.350   -52.676  0.2245 -0.6617  0.7154
    44 H(1)   Bbb     0.1384    73.828    26.344    24.626  0.9589  0.0193 -0.2830
              Bcc     0.1576    84.092    30.006    28.050  0.1735  0.7495  0.6388
 
              Baa    -0.2887  -154.061   -54.973   -51.389  0.2150  0.4930  0.8431
    45 H(1)   Bbb     0.1380    73.610    26.266    24.554  0.9598  0.0528 -0.2757
              Bcc     0.1508    80.451    28.707    26.836 -0.1804  0.8684 -0.4618
 
              Baa    -0.2899  -154.679   -55.193   -51.596  0.8231 -0.4876 -0.2912
    46 H(1)   Bbb     0.1349    71.951    25.674    24.000  0.5660  0.6616  0.4919
              Bcc     0.1551    82.728    29.520    27.595 -0.0472 -0.5697  0.8205
 
              Baa    -0.2968  -158.335   -56.498   -52.815  0.3802 -0.5025  0.7765
    47 H(1)   Bbb     0.1404    74.905    26.728    24.986  0.1667  0.8630  0.4769
              Bcc     0.1564    83.430    29.770    27.829  0.9098  0.0519 -0.4118
 
              Baa    -0.2921  -155.857   -55.614   -51.988  0.3275 -0.4444  0.8338
    48 H(1)   Bbb     0.1370    73.117    26.090    24.389  0.7410 -0.4268 -0.5185
              Bcc     0.1551    82.740    29.524    27.599  0.5863  0.7876  0.1895
 
              Baa    -0.3705  -197.662   -70.531   -65.933 -0.1397  0.8126  0.5658
    49 H(1)   Bbb     0.1833    97.778    34.890    32.615 -0.5237 -0.5456  0.6543
              Bcc     0.1872    99.885    35.641    33.318  0.8404 -0.2049  0.5018
 
              Baa    -0.3732  -199.123   -71.052   -66.420  0.6697  0.6842 -0.2889
    50 H(1)   Bbb     0.1843    98.350    35.094    32.806 -0.1667  0.5176  0.8392
              Bcc     0.1889   100.773    35.958    33.614  0.7237 -0.5138  0.4607
 
              Baa    -0.3805  -203.042   -72.450   -67.727 -0.0963  0.5861  0.8045
    51 H(1)   Bbb     0.1501    80.097    28.581    26.718  0.9939  0.0128  0.1097
              Bcc     0.2304   122.944    43.870    41.010  0.0540  0.8101 -0.5838
 

 ---------------------------------------------------------------------------------

 No NMR shielding tensors so no spin-rotation constants.
 Leave Link  601 at Thu Dec 14 16:06:06 2023, MaxMem=   33554432 cpu:       0.4
 Merz-Kollman atomic radii used.
 Atom Element Radius
    1     6    1.50
    2     6    1.50
    3     6    1.50
    4     6    1.50
    5     6    1.50
    6     6    1.50
    7     6    1.50
    8     6    1.50
    9     6    1.50
   10     6    1.50
   11     6    1.50
   12     6    1.50
   13     6    1.50
   14     6    1.50
   15     6    1.50
   16     6    1.50
   17     6    1.50
   18     6    1.50
   19     6    1.50
   20     6    1.50
   21     9    1.35
   22     7    1.50
   23     7    1.50
   24     7    1.50
   25     7    1.50
   26     7    1.50
   27     8    1.40
   28     8    1.40
   29     1    1.20
   30     1    1.20
   31     1    1.20
   32     1    1.20
   33     1    1.20
   34     1    1.20
   35     1    1.20
   36     1    1.20
   37     1    1.20
   38     1    1.20
   39     1    1.20
   40     1    1.20
   41     1    1.20
   42     1    1.20
   43     1    1.20
   44     1    1.20
   45     1    1.20
   46     1    1.20
   47     1    1.20
   48     1    1.20
   49     1    1.20
   50     1    1.20
   51     1    1.20
 Generate VDW surfaces: Layer= 4 Dens= 6 Start= 1.400 Inc= 0.200

 **********************************************************************

            Electrostatic Properties Using The SCF Density

 **********************************************************************

       Atomic Center    1 is at   7.241607 -0.519722  0.272414
       Atomic Center    2 is at   0.463785  3.045516  1.720770
       Atomic Center    3 is at  -2.432118 -0.458899  0.115275
       Atomic Center    4 is at  -2.702691 -1.719697  0.640773
[...]
 **** Fit       0.128544
 **** Fit       0.127102
 **** Fit       0.125733
 **** Fit       0.121529
 **** Fit       0.121541
 **** Fit       0.121747
 **** Fit       0.121552
 **** Fit       0.120411
 **** Fit       0.137716
 **** Fit       0.136484
 **** Fit       0.134818
 **** Fit       0.132908
 **** Fit       0.130955
 **** Fit       0.129116
 **** Fit       0.127469
 **** Fit       0.126028
 **** Fit       0.124767
 **** Fit       0.123658
 **** Fit       0.122696
 **** Fit       0.121942
 **** Fit       0.119106
 **** Fit       0.118820
 **** Fit       0.118497
 **** Fit       0.117800
 **** Fit       0.116569
 **** Fit       0.115054
 **** Fit       0.113814
 **** Fit       0.113438
 **** Fit       0.114284
 **** Fit       0.116348
 **** Fit       0.119298
 **** Fit       0.122618
 **** Fit       0.125778
 **** Fit       0.128348
 **** Fit       0.130081
 **** Fit       0.130928
 **** Fit       0.130977
 **** Fit       0.130369
 **** Fit       0.129259
 **** Fit       0.127828
 **** Fit       0.126268
 **** Fit       0.124742
 **** Fit       0.123350
 **** Fit       0.122135
 **** Fit       0.121101
 **** Fit       0.120243
 **** Fit       0.119569
 **** Fit       0.117093
 **** Fit       0.116622
 **** Fit       0.116058
 **** Fit       0.115257
 **** Fit       0.114304
 **** Fit       0.113562
 **** Fit       0.113490
 **** Fit       0.114373
 **** Fit       0.116174
 **** Fit       0.118559
 **** Fit       0.121048
 **** Fit       0.123187
 **** Fit       0.124674
 **** Fit       0.125397
 **** Fit       0.125399
 **** Fit       0.124812
 **** Fit       0.123813
 **** Fit       0.122600
 **** Fit       0.121347
 **** Fit       0.120180
 **** Fit       0.119162
 **** Fit       0.118314
 **** Fit       0.117631
 **** Fit       0.115599
 **** Fit       0.115006
 **** Fit       0.114363
 **** Fit       0.113712
 **** Fit       0.113349
 **** Fit       0.113663
 **** Fit       0.114823
 **** Fit       0.116619
 **** Fit       0.118569
 **** Fit       0.120173
 **** Fit       0.121111
 **** Fit       0.121307
 **** Fit       0.120869
 **** Fit       0.120010
 **** Fit       0.118966
 **** Fit       0.117928
 **** Fit       0.117008
 **** Fit       0.116239
 **** Fit       0.114676
 **** Fit       0.114003
 **** Fit       0.113507
 **** Fit       0.113539
 **** Fit       0.114440
 **** Fit       0.115988
 **** Fit       0.117459
 **** Fit       0.118217
 **** Fit       0.118104
 **** Fit       0.117369
 **** Fit       0.116396
 **** Fit       0.115466
 **** Fit       0.114352
 **** Fit       0.113822
 **** Fit       0.114378
 **** Fit       0.115670
 **** Fit       0.116070
 **** Fit       0.115326
 **** Fit       0.114665
 **** Fit       0.087036
 **** Fit       0.084794
 **** Fit       0.087031
 **** Fit       0.089639
 **** Fit       0.090025
 **** Fit       0.086818
 **** Fit       0.084428
 **** Fit       0.083111
 **** Fit       0.084883
 **** Fit       0.087099
 **** Fit       0.089548
 **** Fit       0.092127
 **** Fit       0.094139
 **** Fit       0.093982
 **** Fit       0.090605
 **** Fit       0.085883
 **** Fit       0.082874
 **** Fit       0.081969
 **** Fit       0.082134
 **** Fit       0.081810
 **** Fit       0.083486
 **** Fit       0.085462
 **** Fit       0.087444
 **** Fit       0.089474
 **** Fit       0.091760
 **** Fit       0.094418
 **** Fit       0.097206
 **** Fit       0.099277
 **** Fit       0.099174
 **** Fit       0.095658
 **** Fit       0.079499
 **** Fit       0.079894
 **** Fit       0.080295
 **** Fit       0.080780
 **** Fit       0.080688
 **** Fit       0.082570
 **** Fit       0.084766
 **** Fit       0.086769
 **** Fit       0.088504
 **** Fit       0.090186
 **** Fit       0.092100
 **** Fit       0.094501
 **** Fit       0.097508
 **** Fit       0.100967
 **** Fit       0.104256
 **** Fit       0.106090
 **** Fit       0.078355
 **** Fit       0.079208
 **** Fit       0.079371
 **** Fit       0.079643
 **** Fit       0.079448
 **** Fit       0.081885
 **** Fit       0.084755
 **** Fit       0.087140
 **** Fit       0.088879
 **** Fit       0.090245
 **** Fit       0.091555
 **** Fit       0.093115
 **** Fit       0.095227
 **** Fit       0.098124
 **** Fit       0.101893
 **** Fit       0.106349
 **** Fit       0.110849
 **** Fit       0.078590
 **** Fit       0.078353
 **** Fit       0.091525
 **** Fit       0.093245
 **** Fit       0.094288
 **** Fit       0.095890
 **** Fit       0.098344
 **** Fit       0.101854
 **** Fit       0.106475
 **** Fit       0.112032
 **** Fit       0.097549
 **** Fit       0.100121
 **** Fit       0.104084
 **** Fit       0.098591
 **** Fit       0.092190
 **** Fit       0.088774
 **** Fit       0.086620
 **** Fit       0.085575
 **** Fit       0.102154
 **** Fit       0.096371
 **** Fit       0.092102
 **** Fit       0.089256
 **** Fit       0.087779
 **** Fit       0.106839
 **** Fit       0.100924
 **** Fit       0.095952
 **** Fit       0.092279
 **** Fit       0.090035
 **** Fit       0.108304
 **** Fit       0.103629
 **** Fit       0.098918
 **** Fit       0.094947
 **** Fit       0.092137
 **** Fit       0.090768
 **** Fit       0.106531
 **** Fit       0.103357
 **** Fit       0.099444
 **** Fit       0.095755
 **** Fit       0.092974
 **** Fit       0.091570
 **** Fit       0.100523
 **** Fit       0.102786
 **** Fit       0.103194
 **** Fit       0.101746
 **** Fit       0.099029
 **** Fit       0.095953
 **** Fit       0.093377
 **** Fit       0.091936
 **** Fit       0.096683
 **** Fit       0.098334
 **** Fit       0.099191
 **** Fit       0.098475
 **** Fit       0.096471
 **** Fit       0.094088
 **** Fit       0.092280
 **** Fit       0.095550
 **** Fit       0.095983
 **** Fit       0.095033
 **** Fit       0.093167
 **** Fit       0.091676
 **** Fit       0.093610
 **** Fit       0.092398
 **** Fit       0.091163
 **** Fit       0.091995
 **** Fit       0.072431
 **** Fit       0.071695
 **** Fit       0.074705
 **** Fit       0.075940
 **** Fit       0.072132
 **** Fit       0.069652
 **** Fit       0.070047
 **** Fit       0.070427
 **** Fit       0.072822
 **** Fit       0.076374
 **** Fit       0.066492
 **** Fit       0.067665
 **** Fit       0.068428
 **** Fit       0.069123
 **** Fit       0.068889
 **** Fit       0.070627
 **** Fit       0.073341
 **** Fit       0.065637
 **** Fit       0.066884
 **** Fit       0.067345
 **** Fit       0.067542
 **** Fit       0.067939
 **** Fit       0.067226
 **** Fit       0.068551
 **** Fit       0.062995
 **** Fit       0.065460
 **** Fit       0.066478
 **** Fit       0.066675
 **** Fit       0.066513
 **** Fit       0.066366
 **** Fit       0.066534
 **** Fit       0.063131
 **** Fit       0.065577
 **** Fit       0.066478
 **** Fit       0.066498
 **** Fit       0.066054
 **** Fit       0.065467
 **** Fit       0.065030
 **** Fit       0.064301
 **** Fit       0.066354
 **** Fit       0.067008
 **** Fit       0.066831
 **** Fit       0.066149
 **** Fit       0.065196
 **** Fit       0.064216
 **** Fit       0.067112
 **** Fit       0.068009
 **** Fit       0.067918
 **** Fit       0.067181
 **** Fit       0.065975
 **** Fit       0.064451
 **** Fit       0.068645
 **** Fit       0.069647
 **** Fit       0.069636
 **** Fit       0.068948
 **** Fit       0.067699
 **** Fit       0.070717
 **** Fit       0.071931
 **** Fit       0.072096
 **** Fit       0.071598
 **** Fit       0.070555
 **** Fit       0.075375
 **** Fit       0.075182
 **** Fit       0.074536
 **** Fit       0.078507
 **** Fit       0.085607
 **** Fit       0.078604
 **** Fit       0.082207
 **** Fit       0.086167
 **** Fit       0.072897
 **** Fit       0.076112
 **** Fit       0.079493
 **** Fit       0.069062
 **** Fit       0.071812
 **** Fit       0.074732
 **** Fit       0.077966
 **** Fit       0.064832
 **** Fit       0.066884
 **** Fit       0.069213
 **** Fit       0.071790
 **** Fit       0.074684
 **** Fit       0.078092
 **** Fit       0.063960
 **** Fit       0.065561
 **** Fit       0.067504
 **** Fit       0.069757
 **** Fit       0.072348
 **** Fit       0.075410
 **** Fit       0.063852
 **** Fit       0.064922
 **** Fit       0.066406
 **** Fit       0.068257
 **** Fit       0.070466
 **** Fit       0.073092
 **** Fit       0.076303
 **** Fit       0.063252
 **** Fit       0.065186
 **** Fit       0.066187
 **** Fit       0.067688
 **** Fit       0.069645
 **** Fit       0.072068
 **** Fit       0.075052
 **** Fit       0.064745
 **** Fit       0.066815
 **** Fit       0.067732
 **** Fit       0.069266
 **** Fit       0.071363
 **** Fit       0.074025
 **** Fit       0.066601
 **** Fit       0.068795
 **** Fit       0.069679
 **** Fit       0.071401
 **** Fit       0.073844
 **** Fit       0.076870
 **** Fit       0.072197
 **** Fit       0.096398
 **** Fit       0.093933
 **** Fit       0.094033
 **** Fit       0.093805
 **** Fit       0.093075
 **** Fit       0.091880
 **** Fit       0.090288
 **** Fit       0.068388
 **** Fit       0.069573
 **** Fit       0.091432
 **** Fit       0.090872
 **** Fit       0.089962
 **** Fit       0.088601
 **** Fit       0.086790
 **** Fit       0.084476
 **** Fit       0.081500
 **** Fit       0.068739
 **** Fit       0.068019
 **** Fit       0.069494
 **** Fit       0.070338
 **** Fit       0.071850
 **** Fit       0.073793
 **** Fit       0.075948
 **** Fit       0.088275
 **** Fit       0.087331
 **** Fit       0.085966
 **** Fit       0.084126
 **** Fit       0.081800
 **** Fit       0.078993
 **** Fit       0.075874
 **** Fit       0.072916
 **** Fit       0.070695
 **** Fit       0.069552
 **** Fit       0.070914
 **** Fit       0.071590
 **** Fit       0.073065
 **** Fit       0.075054
 **** Fit       0.077351
 **** Fit       0.085331
 **** Fit       0.084273
 **** Fit       0.082670
 **** Fit       0.080520
 **** Fit       0.077929
 **** Fit       0.075179
 **** Fit       0.072789
 **** Fit       0.071287
 **** Fit       0.072624
 **** Fit       0.073355
 **** Fit       0.075187
 **** Fit       0.077649
 **** Fit       0.082621
 **** Fit       0.081967
 **** Fit       0.080360
 **** Fit       0.078001
 **** Fit       0.075387
 **** Fit       0.073350
 **** Fit       0.074629
 **** Fit       0.075846
 **** Fit       0.078346
 **** Fit       0.079608
 **** Fit       0.078456
 **** Fit       0.075974
 **** Fit       0.076948
 **** Fit       0.091754
 **** Fit       0.090306
 **** Fit       0.089258
 **** Fit       0.090559
 **** Fit       0.088747
 **** Fit       0.087575
 **** Fit       0.087721
 **** Fit       0.089400
 **** Fit       0.092439
 **** Fit       0.087828
 **** Fit       0.086334
 **** Fit       0.085953
 **** Fit       0.086655
 **** Fit       0.088364
 **** Fit       0.090987
 **** Fit       0.094439
 **** Fit       0.086659
 **** Fit       0.085150
 **** Fit       0.084662
 **** Fit       0.085064
 **** Fit       0.086274
 **** Fit       0.088224
 **** Fit       0.090847
 **** Fit       0.094102
 **** Fit       0.085187
 **** Fit       0.083980
 **** Fit       0.083635
 **** Fit       0.084037
 **** Fit       0.085123
 **** Fit       0.086838
 **** Fit       0.089112
 **** Fit       0.091864
 **** Fit       0.095049
 **** Fit       0.085636
 **** Fit       0.083971
 **** Fit       0.083108
 **** Fit       0.082909
 **** Fit       0.083316
 **** Fit       0.084298
 **** Fit       0.085821
 **** Fit       0.087816
 **** Fit       0.090168
 **** Fit       0.092742
 **** Fit       0.085643
 **** Fit       0.083953
 **** Fit       0.082950
 **** Fit       0.082533
 **** Fit       0.082668
 **** Fit       0.083355
 **** Fit       0.084599
 **** Fit       0.086359
 **** Fit       0.088514
 **** Fit       0.090842
 **** Fit       0.085877
 **** Fit       0.084327
 **** Fit       0.083284
 **** Fit       0.082699
 **** Fit       0.082569
 **** Fit       0.082932
 **** Fit       0.083848
 **** Fit       0.086552
 **** Fit       0.085156
 **** Fit       0.084136
 **** Fit       0.083454
 **** Fit       0.149660
 **** Fit       0.152023
 **** Fit       0.150852
 **** Fit       0.147990
 **** Fit       0.147286
 **** Fit       0.149178
 **** Fit       0.152793
 **** Fit       0.149439
 **** Fit       0.146914
 **** Fit       0.145649
 **** Fit       0.145711
 **** Fit       0.147036
 **** Fit       0.149424
 **** Fit       0.152374
 **** Fit       0.151786
 **** Fit       0.148636
 **** Fit       0.146365
 **** Fit       0.145003
 **** Fit       0.144500
 **** Fit       0.144809
 **** Fit       0.145915
 **** Fit       0.147822
 **** Fit       0.150464
 **** Fit       0.153429
 **** Fit       0.149923
 **** Fit       0.147303
 **** Fit       0.145512
 **** Fit       0.144459
 **** Fit       0.144068
 **** Fit       0.144293
 **** Fit       0.145130
 **** Fit       0.146616
 **** Fit       0.148826
 **** Fit       0.153930
 **** Fit       0.150363
 **** Fit       0.147741
 **** Fit       0.145924
 **** Fit       0.144791
 **** Fit       0.144251
 **** Fit       0.144249
 **** Fit       0.144763
 **** Fit       0.145812
 **** Fit       0.147464
 **** Fit       0.149852
 **** Fit       0.154782
 **** Fit       0.151260
 **** Fit       0.148677
 **** Fit       0.146858
 **** Fit       0.145673
 **** Fit       0.145029
 **** Fit       0.144867
 **** Fit       0.145156
 **** Fit       0.145892
 **** Fit       0.147109
 **** Fit       0.148888
 **** Fit       0.151393
 **** Fit       0.152970
 **** Fit       0.150241
 **** Fit       0.148318
 **** Fit       0.147053
 **** Fit       0.146346
 **** Fit       0.146132
 **** Fit       0.146372
 **** Fit       0.147053
 **** Fit       0.148193
 **** Fit       0.149853
 **** Fit       0.152164
 **** Fit       0.155393
 **** Fit       0.155299
 **** Fit       0.152459
 **** Fit       0.150442
 **** Fit       0.149099
 **** Fit       0.148329
 **** Fit       0.148067
 **** Fit       0.148270
 **** Fit       0.148917
 **** Fit       0.150008
 **** Fit       0.151576
 **** Fit       0.153705
 **** Fit       0.156572
 **** Fit       0.156920
 **** Fit       0.154334
 **** Fit       0.152534
 **** Fit       0.151401
 **** Fit       0.150856
 **** Fit       0.150843
 **** Fit       0.151325
 **** Fit       0.152282
 **** Fit       0.153713
 **** Fit       0.155643
 **** Fit       0.158152
 **** Fit       0.161420
 **** Fit       0.157189
 **** Fit       0.155547
 **** Fit       0.154666
 **** Fit       0.154475
 **** Fit       0.154923
 **** Fit       0.155972
 **** Fit       0.157591
 **** Fit       0.159769
 **** Fit       0.162530
 **** Fit       0.151979
 **** Fit       0.151879
 **** Fit       0.152949
 **** Fit       0.149770
 **** Fit       0.148379
 **** Fit       0.148643
 **** Fit       0.150540
 **** Fit       0.150839
 **** Fit       0.147717
 **** Fit       0.146090
 **** Fit       0.145732
 **** Fit       0.146541
 **** Fit       0.148531
 **** Fit       0.151841
 **** Fit       0.148230
 **** Fit       0.145516
 **** Fit       0.144084
 **** Fit       0.143704
 **** Fit       0.144261
 **** Fit       0.145731
 **** Fit       0.148182
 **** Fit       0.151791
 **** Fit       0.149399
 **** Fit       0.145796
 **** Fit       0.143580
 **** Fit       0.142421
 **** Fit       0.142126
 **** Fit       0.142588
 **** Fit       0.143767
 **** Fit       0.145686
 **** Fit       0.148438
 **** Fit       0.152200
 **** Fit       0.145105
 **** Fit       0.142659
 **** Fit       0.141313
 **** Fit       0.140836
 **** Fit       0.141088
 **** Fit       0.141996
 **** Fit       0.143541
 **** Fit       0.145761
 **** Fit       0.148753
 **** Fit       0.152691
 **** Fit       0.143975
 **** Fit       0.141512
 **** Fit       0.140152
 **** Fit       0.139652
 **** Fit       0.139851
 **** Fit       0.140653
 **** Fit       0.142013
 **** Fit       0.143936
 **** Fit       0.146468
 **** Fit       0.149705
 **** Fit       0.153801
 **** Fit       0.138396
 **** Fit       0.138253
 **** Fit       0.138761
 **** Fit       0.139819
 **** Fit       0.141380
 **** Fit       0.143443
 **** Fit       0.146045
 **** Fit       0.149260
 **** Fit       0.153201
 **** Fit       0.138248
 **** Fit       0.140124
 **** Fit       0.142465
 **** Fit       0.145309
 **** Fit       0.148733
 **** Fit       0.152844
 **** Fit       0.142258
 **** Fit       0.145886
 **** Fit       0.150116
 **** Fit       0.146567
 **** Fit       0.105865
 **** Fit       0.109526
 **** Fit       0.105835
 **** Fit       0.104166
 **** Fit       0.104304
 **** Fit       0.104841
 **** Fit       0.106243
 **** Fit       0.105016
 **** Fit       0.108446
 **** Fit       0.104661
 **** Fit       0.108419
 **** Fit       0.112754
 **** Fit       0.105635
 **** Fit       0.109242
 **** Fit       0.114349
 **** Fit       0.109984
 **** Fit       0.110230
 **** Fit       0.115345
 **** Fit       0.122120
 **** Fit       0.115677
 -----------------------------------------------------------------
 Leave Link  602 at Thu Dec 14 19:31:32 2023, MaxMem=   33554432 cpu:       4.4

 Test job not archived.
 1\1\GINC-NODE525\FOpt\RHF\6-31G(d)\C20H23F1N5O2(1+)\TALAGAYEV\14-Dec-2
 023\0\\#HF/6-31G* SCF=tight Test Pop=MK iop(6/33=2) iop(6/42=6) opt\\r
 emark line goes here\\1,1\C,52.3806266259,-24.7291038089,30.8340476234
 \C,57.7311517324,-30.3146257263,30.8794834985\C,59.2301031848,-29.3983
 554275,35.5061699773\C,58.4325275462,-29.6751229238,36.5754137284\C,58
 .9780592911,-30.1797748664,37.7753645987\C,60.3133177355,-30.419557051
 5,37.8879160522\C,61.1831327655,-30.1382686817,36.7933013984\C,60.6399
 844848,-29.612437365,35.6076147591\C,61.5515320973,-29.2986047085,34.5
 6673816\C,63.3012597122,-30.0966573959,35.9725641778\C,62.8742170244,-
 29.5402377975,34.7428481335\C,54.5768758686,-24.1622878976,31.71907031
 09\C,60.8412007685,-30.9508337282,39.1212716961\C,54.215744986,-25.626
 4943964,32.0740256324\C,53.1507301597,-26.0127562727,31.0554290729\C,5
 7.4511855531,-27.3323617932,32.977268745\C,57.6394354498,-27.941688257
 ,34.3630042818\C,58.4180501925,-29.9482365245,33.2925665959\C,58.18598
 24126,-29.3173409531,31.9265876323\C,56.314648048,-26.3288953812,32.97
 69127495\F,53.7686421169,-26.3066749709,29.8663643491\N,53.5047233438,
 -23.7374834811,30.7198419109\N,55.3369083923,-26.5132054366,32.0603801
 391\N,58.7169199395,-28.9068408924,34.2712902705\N,62.5020831199,-30.3
 754171843,36.948906653\N,61.1985556711,-31.3693147459,40.1145414066\O,
 57.1791424873,-28.3201065288,32.028030585\O,56.2816231709,-25.39749530
 09,33.737333088\H,51.776700353,-24.4610727066,31.6887433899\H,51.78672
 80959,-24.7244193212,29.9336024982\H,58.4807763716,-31.0851720423,30.7
 377852808\H,57.5727682403,-29.8169941209,29.9299130942\H,56.8029780655
 ,-30.7885337017,31.1792439521\H,57.3713305146,-29.5233539412,36.521122
 0687\H,58.3268966919,-30.3891466735,38.6031003094\H,61.1836860273,-28.
 8596142496,33.6601593718\H,64.3456017217,-30.3014128724,36.1319696481\
 H,63.5951493959,-29.3122364858,33.9803612719\H,55.5382365501,-24.07062
 45456,31.2426905664\H,54.5280471328,-23.5029742244,32.5689452927\H,53.
 7630006551,-25.6280924953,33.0581426784\H,52.5349481155,-26.8490329482
 ,31.3452200464\H,58.3535011209,-26.787936325,32.7089782205\H,56.695029
 8321,-28.3923980165,34.6735012046\H,57.8981024877,-27.1676610192,35.07
 04504777\H,59.2540512275,-30.6325964415,33.2350760423\H,57.5373346404,
 -30.5229418759,33.585121763\H,59.1057462724,-28.8335312403,31.60668752
 32\H,53.1983270934,-22.7875590826,30.866163532\H,53.8784251924,-23.778
 8882319,29.7831763406\H,55.4032703215,-27.2696279406,31.4155582007\\Ve
 rsion=EM64L-G09RevA.02\State=1-A\HF=-1291.9616799\RMSD=8.324e-09\RMSF=
 7.276e-06\Dipole=-8.4570595,6.8420601,-7.8430317\Quadrupole=35.8905496
 ,5.9049215,-41.7954711,-52.9975336,22.4370796,-25.8474218\PG=C01 [X(C2
 0H23F1N5O2)]\\@


 THE POLHOLDE ROLLS WITHOUT SLIPPING ON THE HERPOLHOLDE LYING IN
 THE INVARIABLE PLANE.
 H.GOLDSTEIN, "CLASSICAL MECHANICS", PG 161
 Job cpu time:  0 days  3 hours 29 minutes 11.6 seconds.
 File lengths (MBytes):  RWF=    168 Int=      0 D2E=      0 Chk=     15 Scr=      1
 Normal termination of Gaussian 09 at Thu Dec 14 19:31:32 2023.
