 Entering Gaussian System, Link 0=g09
 Initial command:
 /afs/math/software/gaussian/g09/@sys/l1.exe /net/beegfs/talagayev/fkbp/pdb-lig/CU8/Gau-26790.inp -scrdir=/net/beegfs/talagayev/fkbp/pdb-lig/CU8/
 Entering Link 1 = /afs/math/software/gaussian/g09/@sys/l1.exe PID=     26791.
  
 Copyright (c) 1988,1990,1992,1993,1995,1998,2003,2009, Gaussian, Inc.
                  All Rights Reserved.
  
 This is part of the Gaussian(R) 09 program.  It is based on
 the Gaussian(R) 03 system (copyright 2003, Gaussian, Inc.),
 the Gaussian(R) 98 system (copyright 1998, Gaussian, Inc.),
 the Gaussian(R) 94 system (copyright 1995, Gaussian, Inc.),
 the Gaussian 92(TM) system (copyright 1992, Gaussian, Inc.),
 the Gaussian 90(TM) system (copyright 1990, Gaussian, Inc.),
 the Gaussian 88(TM) system (copyright 1988, Gaussian, Inc.),
 the Gaussian 86(TM) system (copyright 1986, Carnegie Mellon
 University), and the Gaussian 82(TM) system (copyright 1983,
 Carnegie Mellon University). Gaussian is a federally registered
 trademark of Gaussian, Inc.
  
 This software contains proprietary and confidential information,
 including trade secrets, belonging to Gaussian, Inc.
  
 This software is provided under written license and may be
 used, copied, transmitted, or stored only in accord with that
 written license.
  
 The following legend is applicable only to US Government
 contracts under FAR:
  
                    RESTRICTED RIGHTS LEGEND
  
 Use, reproduction and disclosure by the US Government is
 subject to restrictions as set forth in subparagraphs (a)
 and (c) of the Commercial Computer Software - Restricted
 Rights clause in FAR 52.227-19.
  
 Gaussian, Inc.
 340 Quinnipiac St., Bldg. 40, Wallingford CT 06492
  
  
 ---------------------------------------------------------------
 Warning -- This program may not be used in any manner that
 competes with the business of Gaussian, Inc. or will provide
 assistance to any competitor of Gaussian, Inc.  The licensee
 of this program is prohibited from giving any competitor of
 Gaussian, Inc. access to this program.  By using this program,
 the user acknowledges that Gaussian, Inc. is engaged in the
 business of creating and licensing software in the field of
 computational chemistry and represents and warrants to the
 licensee that it is not a competitor of Gaussian, Inc. and that
 it will not use this program in any manner prohibited above.
 ---------------------------------------------------------------
  

 Cite this work as:
 Gaussian 09, Revision A.02,
 M. J. Frisch, G. W. Trucks, H. B. Schlegel, G. E. Scuseria, 
 M. A. Robb, J. R. Cheeseman, G. Scalmani, V. Barone, B. Mennucci, 
 G. A. Petersson, H. Nakatsuji, M. Caricato, X. Li, H. P. Hratchian, 
 A. F. Izmaylov, J. Bloino, G. Zheng, J. L. Sonnenberg, M. Hada, 
 M. Ehara, K. Toyota, R. Fukuda, J. Hasegawa, M. Ishida, T. Nakajima, 
 Y. Honda, O. Kitao, H. Nakai, T. Vreven, J. A. Montgomery, Jr., 
 J. E. Peralta, F. Ogliaro, M. Bearpark, J. J. Heyd, E. Brothers, 
 K. N. Kudin, V. N. Staroverov, R. Kobayashi, J. Normand, 
 K. Raghavachari, A. Rendell, J. C. Burant, S. S. Iyengar, J. Tomasi, 
 M. Cossi, N. Rega, J. M. Millam, M. Klene, J. E. Knox, J. B. Cross, 
 V. Bakken, C. Adamo, J. Jaramillo, R. Gomperts, R. E. Stratmann, 
 O. Yazyev, A. J. Austin, R. Cammi, C. Pomelli, J. W. Ochterski, 
 R. L. Martin, K. Morokuma, V. G. Zakrzewski, G. A. Voth, 
 P. Salvador, J. J. Dannenberg, S. Dapprich, A. D. Daniels, 
 O. Farkas, J. B. Foresman, J. V. Ortiz, J. Cioslowski, 
 and D. J. Fox, Gaussian, Inc., Wallingford CT, 2009.
 
 ******************************************
 Gaussian 09:  EM64L-G09RevA.02 11-Jun-2009
                 5-Jul-2023 
 ******************************************
 %nprocs=12
 Will use up to   12 processors via shared memory.
 %mem=16GB
 -------------------------------------------------------------
 #HF/6-31G* SCF=tight Test Pop=MK iop(6/33=2) iop(6/42=6) fopt
 -------------------------------------------------------------
 1/18=20,19=15,38=1/1,3;
 2/9=110,12=2,14=103,17=6,18=5,40=1/2;
 3/5=1,6=6,7=1,11=9,16=1,25=1,30=1,71=1/1,2,3;
 4//1;
 5/5=2,32=2,38=5/2;
 6/7=2,8=2,9=2,10=2,15=8,20=1,28=1,33=2,42=6/1,2;
 7//1,2,3,16;
 1/18=20,19=15/3(2);
 2/9=110/2;
 99//99;
 2/9=110/2;
 3/5=1,6=6,7=1,11=9,16=1,25=1,30=1,71=1/1,2,3;
 4/5=5,16=3/1;
 5/5=2,32=2,38=5/2;
 7//1,2,3,16;
 1/18=20,19=15/3(-5);
 2/9=110/2;
 6/7=2,8=2,9=2,10=2,15=8,19=2,20=1,28=1,33=2,42=6/1,2;
 99/9=1/99;
 ---------------------
 remark line goes here
 ---------------------
 Symbolic Z-matrix:
 Charge =  0 Multiplicity = 1
 N                     60.629   -30.166    35.359 
 C                     61.458   -30.704    36.167 
 O                     60.534   -31.833    39.422 
 C                     61.055   -29.827    34.16 
 N                     62.733   -30.975    35.905 
 C                     62.368   -30.061    33.835 
 N                     59.371   -30.001    35.855 
 C                     63.228   -30.651    34.734 
 N                     62.509   -31.671    38.629 
 C                     59.371   -30.471    37.088 
 C                     60.632   -30.921    37.345 
 C                     60.152   -29.181    33.193 
 C                     60.041   -29.571    31.882 
 C                     59.176   -28.902    31.047 
 C                     58.435   -27.857    31.5 
 C                     59.408   -28.113    33.618 
 C                     58.54    -27.459    32.791 
 C                     61.232   -31.525    38.533 
 C                     59.029   -29.301    29.624 
 H                     62.732   -29.778    32.859 
 H                     64.262   -30.838    34.487 
 H                     58.531   -30.495    37.766 
 H                     60.628   -30.397    31.508 
 H                     57.761   -27.343    30.83 
 H                     59.511   -27.777    34.639 
 H                     57.946   -26.636    33.161 
 H                     62.912   -32.052    39.473 
 H                     63.107   -31.404    37.86 
 H                     58.301   -28.651    29.138 
 H                     58.687   -30.335    29.57 
 H                     59.991   -29.21     29.12 
 

 GradGradGradGradGradGradGradGradGradGradGradGradGradGradGradGradGradGrad
 Berny optimization.
 Initialization pass.
                           ----------------------------
                           !    Initial Parameters    !
                           ! (Angstroms and Degrees)  !
 --------------------------                            --------------------------
 ! Name  Definition              Value          Derivative Info.                !
 --------------------------------------------------------------------------------
 ! R1    R(1,2)                  1.2765         estimate D2E/DX2                !
 ! R2    R(1,4)                  1.3168         estimate D2E/DX2                !
 ! R3    R(1,7)                  1.3623         estimate D2E/DX2                !
 ! R4    R(2,5)                  1.3296         estimate D2E/DX2                !
 ! R5    R(2,11)                 1.455          estimate D2E/DX2                !
 ! R6    R(3,18)                 1.1715         estimate D2E/DX2                !
 ! R7    R(4,6)                  1.3727         estimate D2E/DX2                !
 ! R8    R(4,12)                 1.4723         estimate D2E/DX2                !
 ! R9    R(5,8)                  1.312          estimate D2E/DX2                !
 ! R10   R(6,8)                  1.3769         estimate D2E/DX2                !
 ! R11   R(6,20)                 1.0794         estimate D2E/DX2                !
 ! R12   R(7,10)                 1.3195         estimate D2E/DX2                !
 ! R13   R(8,21)                 1.0794         estimate D2E/DX2                !
 ! R14   R(9,18)                 1.2889         estimate D2E/DX2                !
 ! R15   R(9,27)                 1.0099         estimate D2E/DX2                !
 ! R16   R(9,28)                 1.0101         estimate D2E/DX2                !
 ! R17   R(10,11)                1.3633         estimate D2E/DX2                !
 ! R18   R(10,22)                1.0797         estimate D2E/DX2                !
 ! R19   R(11,18)                1.4616         estimate D2E/DX2                !
 ! R20   R(12,13)                1.3723         estimate D2E/DX2                !
 ! R21   R(12,16)                1.3692         estimate D2E/DX2                !
 ! R22   R(13,14)                1.3759         estimate D2E/DX2                !
 ! R23   R(13,23)                1.0801         estimate D2E/DX2                !
 ! R24   R(14,15)                1.3588         estimate D2E/DX2                !
 ! R25   R(14,19)                1.4852         estimate D2E/DX2                !
 ! R26   R(15,17)                1.355          estimate D2E/DX2                !
 ! R27   R(15,24)                1.0804         estimate D2E/DX2                !
 ! R28   R(16,17)                1.3657         estimate D2E/DX2                !
 ! R29   R(16,25)                1.0798         estimate D2E/DX2                !
 ! R30   R(17,26)                1.0803         estimate D2E/DX2                !
 ! R31   R(19,29)                1.0903         estimate D2E/DX2                !
 ! R32   R(19,30)                1.0904         estimate D2E/DX2                !
 ! R33   R(19,31)                1.0898         estimate D2E/DX2                !
 ! A1    A(2,1,4)              118.3424         estimate D2E/DX2                !
 ! A2    A(2,1,7)              114.8529         estimate D2E/DX2                !
 ! A3    A(4,1,7)              126.8043         estimate D2E/DX2                !
 ! A4    A(1,2,5)              125.7281         estimate D2E/DX2                !
 ! A5    A(1,2,11)             101.9258         estimate D2E/DX2                !
 ! A6    A(5,2,11)             132.3412         estimate D2E/DX2                !
 ! A7    A(1,4,6)              118.7589         estimate D2E/DX2                !
 ! A8    A(1,4,12)             120.8342         estimate D2E/DX2                !
 ! A9    A(6,4,12)             120.3926         estimate D2E/DX2                !
 ! A10   A(2,5,8)              119.1676         estimate D2E/DX2                !
 ! A11   A(4,6,8)              121.056          estimate D2E/DX2                !
 ! A12   A(4,6,20)             119.4673         estimate D2E/DX2                !
 ! A13   A(8,6,20)             119.4767         estimate D2E/DX2                !
 ! A14   A(1,7,10)             107.282          estimate D2E/DX2                !
 ! A15   A(5,8,6)              116.9314         estimate D2E/DX2                !
 ! A16   A(5,8,21)             121.5258         estimate D2E/DX2                !
 ! A17   A(6,8,21)             121.5428         estimate D2E/DX2                !
 ! A18   A(18,9,27)            120.0228         estimate D2E/DX2                !
 ! A19   A(18,9,28)            119.9948         estimate D2E/DX2                !
 ! A20   A(27,9,28)            119.9824         estimate D2E/DX2                !
 ! A21   A(7,10,11)            107.0804         estimate D2E/DX2                !
 ! A22   A(7,10,22)            126.4883         estimate D2E/DX2                !
 ! A23   A(11,10,22)           126.4313         estimate D2E/DX2                !
 ! A24   A(2,11,10)            108.8588         estimate D2E/DX2                !
 ! A25   A(2,11,18)            119.1216         estimate D2E/DX2                !
 ! A26   A(10,11,18)           132.016          estimate D2E/DX2                !
 ! A27   A(4,12,13)            123.5292         estimate D2E/DX2                !
 ! A28   A(4,12,16)            118.1397         estimate D2E/DX2                !
 ! A29   A(13,12,16)           118.311          estimate D2E/DX2                !
 ! A30   A(12,13,14)           119.5021         estimate D2E/DX2                !
 ! A31   A(12,13,23)           120.2756         estimate D2E/DX2                !
 ! A32   A(14,13,23)           120.2223         estimate D2E/DX2                !
 ! A33   A(13,14,15)           120.9622         estimate D2E/DX2                !
 ! A34   A(13,14,19)           120.8692         estimate D2E/DX2                !
 ! A35   A(15,14,19)           118.1684         estimate D2E/DX2                !
 ! A36   A(14,15,17)           120.0836         estimate D2E/DX2                !
 ! A37   A(14,15,24)           119.955          estimate D2E/DX2                !
 ! A38   A(17,15,24)           119.9614         estimate D2E/DX2                !
 ! A39   A(12,16,17)           122.068          estimate D2E/DX2                !
 ! A40   A(12,16,25)           118.9717         estimate D2E/DX2                !
 ! A41   A(17,16,25)           118.9603         estimate D2E/DX2                !
 ! A42   A(15,17,16)           119.0478         estimate D2E/DX2                !
 ! A43   A(15,17,26)           120.4952         estimate D2E/DX2                !
 ! A44   A(16,17,26)           120.4571         estimate D2E/DX2                !
 ! A45   A(3,18,9)             120.2662         estimate D2E/DX2                !
 ! A46   A(3,18,11)            118.7429         estimate D2E/DX2                !
 ! A47   A(9,18,11)            120.9362         estimate D2E/DX2                !
 ! A48   A(14,19,29)           109.4524         estimate D2E/DX2                !
 ! A49   A(14,19,30)           109.4658         estimate D2E/DX2                !
 ! A50   A(14,19,31)           109.4689         estimate D2E/DX2                !
 ! A51   A(29,19,30)           109.5016         estimate D2E/DX2                !
 ! A52   A(29,19,31)           109.48           estimate D2E/DX2                !
 ! A53   A(30,19,31)           109.4586         estimate D2E/DX2                !
 ! D1    D(4,1,2,5)             -0.8292         estimate D2E/DX2                !
 ! D2    D(4,1,2,11)           179.8889         estimate D2E/DX2                !
 ! D3    D(7,1,2,5)            179.3889         estimate D2E/DX2                !
 ! D4    D(7,1,2,11)             0.107          estimate D2E/DX2                !
 ! D5    D(2,1,4,6)             -0.2692         estimate D2E/DX2                !
 ! D6    D(2,1,4,12)          -178.8992         estimate D2E/DX2                !
 ! D7    D(7,1,4,6)            179.4836         estimate D2E/DX2                !
 ! D8    D(7,1,4,12)             0.8537         estimate D2E/DX2                !
 ! D9    D(2,1,7,10)            -0.1484         estimate D2E/DX2                !
 ! D10   D(4,1,7,10)          -179.9087         estimate D2E/DX2                !
 ! D11   D(1,2,5,8)              1.5301         estimate D2E/DX2                !
 ! D12   D(11,2,5,8)          -179.4204         estimate D2E/DX2                !
 ! D13   D(1,2,11,10)           -0.031          estimate D2E/DX2                !
 ! D14   D(1,2,11,18)         -179.4137         estimate D2E/DX2                !
 ! D15   D(5,2,11,10)         -179.2423         estimate D2E/DX2                !
 ! D16   D(5,2,11,18)            1.375          estimate D2E/DX2                !
 ! D17   D(1,4,6,8)              0.6541         estimate D2E/DX2                !
 ! D18   D(1,4,6,20)          -179.3515         estimate D2E/DX2                !
 ! D19   D(12,4,6,8)           179.2903         estimate D2E/DX2                !
 ! D20   D(12,4,6,20)           -0.7153         estimate D2E/DX2                !
 ! D21   D(1,4,12,13)         -132.9197         estimate D2E/DX2                !
 ! D22   D(1,4,12,16)           48.7391         estimate D2E/DX2                !
 ! D23   D(6,4,12,13)           48.4727         estimate D2E/DX2                !
 ! D24   D(6,4,12,16)         -129.8685         estimate D2E/DX2                !
 ! D25   D(2,5,8,6)             -1.0273         estimate D2E/DX2                !
 ! D26   D(2,5,8,21)           178.9455         estimate D2E/DX2                !
 ! D27   D(4,6,8,5)              0.0171         estimate D2E/DX2                !
 ! D28   D(4,6,8,21)          -179.9557         estimate D2E/DX2                !
 ! D29   D(20,6,8,5)          -179.9773         estimate D2E/DX2                !
 ! D30   D(20,6,8,21)            0.0499         estimate D2E/DX2                !
 ! D31   D(1,7,10,11)            0.1143         estimate D2E/DX2                !
 ! D32   D(1,7,10,22)         -179.8821         estimate D2E/DX2                !
 ! D33   D(27,9,18,3)           -0.015          estimate D2E/DX2                !
 ! D34   D(27,9,18,11)         177.2608         estimate D2E/DX2                !
 ! D35   D(28,9,18,3)         -179.9944         estimate D2E/DX2                !
 ! D36   D(28,9,18,11)          -2.7186         estimate D2E/DX2                !
 ! D37   D(7,10,11,2)           -0.0541         estimate D2E/DX2                !
 ! D38   D(7,10,11,18)         179.22           estimate D2E/DX2                !
 ! D39   D(22,10,11,2)         179.9422         estimate D2E/DX2                !
 ! D40   D(22,10,11,18)         -0.7837         estimate D2E/DX2                !
 ! D41   D(2,11,18,3)         -171.6426         estimate D2E/DX2                !
 ! D42   D(2,11,18,9)           11.0409         estimate D2E/DX2                !
 ! D43   D(10,11,18,3)           9.1437         estimate D2E/DX2                !
 ! D44   D(10,11,18,9)        -168.1728         estimate D2E/DX2                !
 ! D45   D(4,12,13,14)        -179.5647         estimate D2E/DX2                !
 ! D46   D(4,12,13,23)           0.443          estimate D2E/DX2                !
 ! D47   D(16,12,13,14)         -1.2262         estimate D2E/DX2                !
 ! D48   D(16,12,13,23)        178.7815         estimate D2E/DX2                !
 ! D49   D(4,12,16,17)        -179.6338         estimate D2E/DX2                !
 ! D50   D(4,12,16,25)           0.3888         estimate D2E/DX2                !
 ! D51   D(13,12,16,17)          1.9368         estimate D2E/DX2                !
 ! D52   D(13,12,16,25)       -178.0405         estimate D2E/DX2                !
 ! D53   D(12,13,14,15)          0.3149         estimate D2E/DX2                !
 ! D54   D(12,13,14,19)       -179.8203         estimate D2E/DX2                !
 ! D55   D(23,13,14,15)       -179.6928         estimate D2E/DX2                !
 ! D56   D(23,13,14,19)          0.172          estimate D2E/DX2                !
 ! D57   D(13,14,15,17)         -0.0405         estimate D2E/DX2                !
 ! D58   D(13,14,15,24)        179.9789         estimate D2E/DX2                !
 ! D59   D(19,14,15,17)       -179.9088         estimate D2E/DX2                !
 ! D60   D(19,14,15,24)          0.1105         estimate D2E/DX2                !
 ! D61   D(13,14,19,29)       -179.9925         estimate D2E/DX2                !
 ! D62   D(13,14,19,30)         59.9851         estimate D2E/DX2                !
 ! D63   D(13,14,19,31)        -59.9946         estimate D2E/DX2                !
 ! D64   D(15,14,19,29)         -0.124          estimate D2E/DX2                !
 ! D65   D(15,14,19,30)       -120.1464         estimate D2E/DX2                !
 ! D66   D(15,14,19,31)        119.8738         estimate D2E/DX2                !
 ! D67   D(14,15,17,16)          0.6969         estimate D2E/DX2                !
 ! D68   D(14,15,17,26)       -179.3226         estimate D2E/DX2                !
 ! D69   D(24,15,17,16)       -179.3225         estimate D2E/DX2                !
 ! D70   D(24,15,17,26)          0.658          estimate D2E/DX2                !
 ! D71   D(12,16,17,15)         -1.6786         estimate D2E/DX2                !
 ! D72   D(12,16,17,26)        178.3409         estimate D2E/DX2                !
 ! D73   D(25,16,17,15)        178.2987         estimate D2E/DX2                !
 ! D74   D(25,16,17,26)         -1.6817         estimate D2E/DX2                !
 --------------------------------------------------------------------------------
 Trust Radius=3.00D-01 FncErr=1.00D-07 GrdErr=1.00D-07
 Number of steps in this run= 170 maximum allowed number of steps= 186.
 GradGradGradGradGradGradGradGradGradGradGradGradGradGradGradGradGradGrad

                          Input orientation:                          
 ---------------------------------------------------------------------
 Center     Atomic      Atomic             Coordinates (Angstroms)
 Number     Number       Type             X           Y           Z
 ---------------------------------------------------------------------
      1          7           0       60.629000  -30.166000   35.359000
      2          6           0       61.458000  -30.704000   36.167000
      3          8           0       60.534000  -31.833000   39.422000
      4          6           0       61.055000  -29.827000   34.160000
      5          7           0       62.733000  -30.975000   35.905000
      6          6           0       62.368000  -30.061000   33.835000
      7          7           0       59.371000  -30.001000   35.855000
      8          6           0       63.228000  -30.651000   34.734000
      9          7           0       62.509000  -31.671000   38.629000
     10          6           0       59.371000  -30.471000   37.088000
     11          6           0       60.632000  -30.921000   37.345000
     12          6           0       60.152000  -29.181000   33.193000
     13          6           0       60.041000  -29.571000   31.882000
     14          6           0       59.176000  -28.902000   31.047000
     15          6           0       58.435000  -27.857000   31.500000
     16          6           0       59.408000  -28.113000   33.618000
     17          6           0       58.540000  -27.459000   32.791000
     18          6           0       61.232000  -31.525000   38.533000
     19          6           0       59.029000  -29.301000   29.624000
     20          1           0       62.732000  -29.778000   32.859000
     21          1           0       64.262000  -30.838000   34.487000
     22          1           0       58.531000  -30.495000   37.766000
     23          1           0       60.628000  -30.397000   31.508000
     24          1           0       57.761000  -27.343000   30.830000
     25          1           0       59.511000  -27.777000   34.639000
     26          1           0       57.946000  -26.636000   33.161000
     27          1           0       62.912000  -32.052000   39.473000
     28          1           0       63.107000  -31.404000   37.860000
     29          1           0       58.301000  -28.651000   29.138000
     30          1           0       58.687000  -30.335000   29.570000
     31          1           0       59.991000  -29.210000   29.120000
 ---------------------------------------------------------------------
                    Distance matrix (angstroms):
                    1          2          3          4          5
     1  N    0.000000
     2  C    1.276538   0.000000
     3  O    4.392708   3.566993   0.000000
     4  C    1.316814   2.227013   5.655451   0.000000
     5  N    2.319356   1.329553   4.235688   2.679293   0.000000
     6  C    2.314675   2.584526   6.141507   1.372716   2.292056
     7  N    1.362279   2.224213   4.175198   2.395654   3.500603
     8  C    2.716735   2.277981   5.534628   2.393821   1.311961
     9  N    4.061074   2.846249   2.134413   5.048407   2.820420
    10  C    2.159868   2.293055   2.941967   3.438572   3.599521
    11  C    2.124672   1.455008   2.270524   3.394111   2.547689
    12  C    2.426790   3.587456   6.780816   1.472350   4.151499
    13  C    3.576213   4.653257   7.887414   2.506595   5.040100
    14  C    4.722526   5.888050   8.976388   3.751937   6.367868
    15  C    5.003698   6.246985   9.108922   4.221481   6.899185
    16  C    2.955796   4.172910   6.985177   2.438067   4.947427
    17  C    4.276259   5.517438   8.190120   3.715752   6.296070
    18  C    3.504963   2.514572   1.171490   4.694429   3.076018
    19  C    6.016515   7.118939  10.231171   4.995663   7.481501
    20  H    3.289856   3.663798   7.219917   2.123048   3.272755
    21  H    3.796137   3.271509   6.264362   3.378446   2.089817
    22  H    3.209906   3.341827   2.923113   4.451970   4.620663
    23  H    3.857922   4.742302   8.043776   2.745967   4.909045
    24  H    6.058597   7.310793  10.083258   5.301848   7.979213
    25  H    2.734163   3.833135   6.354113   2.610723   4.712881
    26  H    4.948797   6.157825   8.538541   4.565782   7.019389
    27  H    5.068933   3.854978   2.388608   6.052028   3.731299
    28  H    3.732041   2.464843   3.040430   4.515267   2.036159
    29  H    6.812903   7.974227  10.994183   5.847048   8.416406
    30  H    6.108391   7.164845  10.134955   5.189758   7.544000
    31  H    6.343981   7.351485  10.644538   5.187908   7.527949
                    6          7          8          9         10
     6  C    0.000000
     7  N    3.614693   0.000000
     8  C    1.376917   4.068856   0.000000
     9  N    5.059093   4.508993   4.090035   0.000000
    10  C    4.442085   1.319541   4.522186   3.696177   0.000000
    11  C    4.009164   2.157921   3.691807   2.394637   1.363330
    12  C    2.469255   2.892854   3.741304   6.426947   4.176731
    13  C    3.077213   4.051978   4.411040   7.484854   5.325536
    14  C    4.393756   4.935858   5.750798   8.732867   6.244475
    15  C    5.077236   4.943567   6.421685   9.053547   6.239779
    16  C    3.550126   2.927470   4.720095   6.883726   4.195525
    17  C    4.744884   4.066992   5.995119   8.220471   5.312901
    18  C    5.050247   3.599664   4.379531   1.288899   2.581136
    19  C    5.427618   6.279516   6.750274   9.940690   7.562880
    20  H    1.079426   4.508000   2.126916   6.076683   5.446192
    21  H    2.148504   5.147220   1.079414   4.574173   5.551736
    22  H    5.510325   2.145124   5.592778   4.237007   1.079750
    23  H    2.924966   4.542386   4.151095   7.474616   5.720308
    24  H    6.135307   5.908273   7.488135  10.104429   7.179070
    25  H    3.745066   2.538589   4.699467   6.330193   3.643465
    26  H    5.633736   4.539987   6.818657   8.721882   5.670906
    27  H    6.003920   5.462161   4.951846   1.009904   4.552633
    28  H    4.307017   4.466109   3.217690   1.010076   3.927362
    29  H    6.371059   6.934370   7.719491  10.812342   8.225558
    30  H    5.640484   6.330927   6.883853   9.922604   7.550277
    31  H    5.348416   6.809575   6.638648  10.139917   8.090955
                   11         12         13         14         15
    11  C    0.000000
    12  C    4.527373   0.000000
    13  C    5.658282   1.372276   0.000000
    14  C    6.772082   2.373970   1.375867   0.000000
    15  C    6.955496   2.750875   2.379697   1.358792   0.000000
    16  C    4.824269   1.369228   2.353752   2.699331   2.344822
    17  C    6.091045   2.392787   2.745874   2.351230   1.355031
    18  C    1.461561   5.930964   7.033662   8.194355   8.410738
    19  C    8.050332   3.743433   2.489098   1.485173   2.440768
    20  H    5.083369   2.669151   2.870341   4.086056   4.899115
    21  H    4.620817   4.616512   5.119390   6.438097   7.194613
    22  H    2.184701   5.026586   6.144537   6.935318   6.799339
    23  H    5.860474   2.131773   1.080149   2.134444   3.355728
    24  H    7.968058   3.831304   3.356946   2.116553   1.080450
    25  H    4.296954   2.114950   3.331724   3.778930   3.319262
    26  H    6.563663   3.368158   3.826107   3.334164   2.118698
    27  H    3.317521   7.436306   8.486535   9.740517  10.060332
    28  H    2.573740   5.954380   6.963959   8.254074   8.652074
    29  H    8.828438   4.488889   3.376912   2.114925   2.495483
    30  H    8.035984   4.074809   2.786101   2.115216   3.151014
    31  H    8.425499   4.076284   2.785941   2.114809   3.148991
                   16         17         18         19         20
    16  C    0.000000
    17  C    1.365675   0.000000
    18  C    6.255074   7.533245   0.000000
    19  C    4.184139   3.696211   9.442969   0.000000
    20  H    3.794375   4.791164   6.123421   4.940138   0.000000
    21  H    5.634013   6.858232   5.101273   7.307217   2.472829
    22  H    4.863019   5.828207   2.990751   8.244138   6.499318
    23  H    3.340233   3.825922   7.140576   2.703234   2.575884
    24  H    3.328431   2.113248   9.427257   2.626028   5.895499
    25  H    1.079790   2.111651   5.672088   5.263566   4.188943
    26  H    2.127868   1.080308   7.972359   4.559110   5.733164
    27  H    7.878754   9.211903   1.995928  10.938395   6.996318
    28  H    6.519804   7.881324   1.995794   9.427852   5.272049
    29  H    4.645998   3.849986  10.252642   1.090266   5.894890
    30  H    4.673695   4.320628   9.393002   1.090429   5.243071
    31  H    4.666401   4.318292   9.772608   1.089835   4.670741
                   21         22         23         24         25
    21  H    0.000000
    22  H    6.611645   0.000000
    23  H    4.719627   6.600725   0.000000
    24  H    8.237213   7.657421   4.243382   0.000000
    25  H    5.653744   4.257470   4.232641   4.214183   0.000000
    26  H    7.701100   6.036566   4.906185   2.442874   2.436307
    27  H    5.306269   4.952904   8.449669  11.108957   7.294517
    28  H    3.609918   4.666358   6.892561   9.720717   6.038310
    29  H    8.302306   8.825850   3.752379   2.205749   5.699910
    30  H    7.450538   8.199046   2.743569   3.375965   5.737343
    31  H    7.049575   8.862062   2.741766   3.373824   5.722172
                   26         27         28         29         30
    26  H    0.000000
    27  H    9.686875   0.000000
    28  H    8.452831   1.749199   0.000000
    29  H    4.513400  11.816952  10.331986   0.000000
    30  H    5.208355  10.902666   9.455330   1.780864   0.000000
    31  H    5.209336  11.126267   9.534710   1.780142   1.780040
                   31
    31  H    0.000000
 Stoichiometry    C14H12N4O
 Framework group  C1[X(C14H12N4O)]
 Deg. of freedom    87
 Full point group                 C1      NOp   1
 Largest Abelian subgroup         C1      NOp   1
 Largest concise Abelian subgroup C1      NOp   1
                         Standard orientation:                         
 ---------------------------------------------------------------------
 Center     Atomic      Atomic             Coordinates (Angstroms)
 Number     Number       Type             X           Y           Z
 ---------------------------------------------------------------------
      1          7           0       -0.622105   -0.105299   -0.001965
      2          6           0       -1.779945    0.431828   -0.023174
      3          8           0       -4.776808   -1.402803    0.590327
      4          6           0        0.428312    0.665781   -0.191852
      5          7           0       -2.033090    1.724023   -0.207184
      6          6           0        0.232463    2.006993   -0.408978
      7          7           0       -0.618644   -1.449940    0.216519
      8          6           0       -1.033743    2.547889   -0.416448
      9          7           0       -4.619260    0.601552   -0.126234
     10          6           0       -1.875427   -1.828122    0.353133
     11          6           0       -2.646599   -0.712365    0.215117
     12          6           0        1.787648    0.100175   -0.202417
     13          6           0        2.839980    0.643163    0.491055
     14          6           0        4.079393    0.050643    0.414984
     15          6           0        4.277834   -1.060380   -0.341696
     16          6           0        2.019943   -1.008172   -0.972086
     17          6           0        3.247846   -1.602570   -1.035430
     18          6           0       -4.093967   -0.512716    0.252893
     19          6           0        5.238375    0.610378    1.156061
     20          1           0        1.084792    2.647815   -0.576439
     21          1           0       -1.196845    3.601181   -0.587059
     22          1           0       -2.227319   -2.831818    0.539217
     23          1           0        2.696807    1.528987    1.092336
     24          1           0        5.258086   -1.512204   -0.389992
     25          1           0        1.206881   -1.425224   -1.547363
     26          1           0        3.395610   -2.492067   -1.630430
     27          1           0       -5.623272    0.710234   -0.133567
     28          1           0       -4.026627    1.366293   -0.416426
     29          1           0        6.121111   -0.000094    0.964275
     30          1           0        5.020849    0.610272    2.224573
     31          1           0        5.423417    1.631550    0.823334
 ---------------------------------------------------------------------
 Rotational constants (GHZ):      1.0547108      0.2067658      0.1822948
 Standard basis: 6-31G(d) (6D, 7F)
 There are   309 symmetry adapted basis functions of A   symmetry.
 Integral buffers will be    131072 words long.
 Raffenetti 1 integral format.
 Two-electron integral symmetry is turned on.
   309 basis functions,   580 primitive gaussians,   309 cartesian basis functions
    66 alpha electrons       66 beta electrons
       nuclear repulsion energy      1345.2211496808 Hartrees.
 NAtoms=   31 NActive=   31 NUniq=   31 SFac= 7.50D-01 NAtFMM=   80 NAOKFM=F Big=F
 One-electron integrals computed using PRISM.
 NBasis=   309 RedAO= T  NBF=   309
 NBsUse=   309 1.00D-06 NBFU=   309
 Harris functional with IExCor=  205 diagonalized for initial guess.
 ExpMin= 1.61D-01 ExpMax= 5.48D+03 ExpMxC= 8.25D+02 IAcc=1 IRadAn=         1 AccDes= 0.00D+00
 HarFok:  IExCor=  205 AccDes= 0.00D+00 IRadAn=         1 IDoV= 1
 ScaDFX=  1.000000  1.000000  1.000000  1.000000
 FoFCou: FMM=F IPFlag=           0 FMFlag=      100000 FMFlg1=           0
         NFxFlg=           0 DoJE=T BraDBF=F KetDBF=T FulRan=T
         Omega=  0.000000  0.000000  1.000000  0.000000  0.000000 ICntrl=     500 IOpCl=  0
         NMat0=    1 NMatS0=    1 NMatT0=    0 NMatD0=    1 NMtDS0=    0 NMtDT0=    0
         I1Cent=           4 NGrid=           0.
 Petite list used in FoFCou.
 Initial guess orbital symmetries:
       Occupied  (A) (A) (A) (A) (A) (A) (A) (A) (A) (A) (A) (A)
                 (A) (A) (A) (A) (A) (A) (A) (A) (A) (A) (A) (A)
                 (A) (A) (A) (A) (A) (A) (A) (A) (A) (A) (A) (A)
                 (A) (A) (A) (A) (A) (A) (A) (A) (A) (A) (A) (A)
                 (A) (A) (A) (A) (A) (A) (A) (A) (A) (A) (A) (A)
                 (A) (A) (A) (A) (A) (A)
       Virtual   (A) (A) (A) (A) (A) (A) (A) (A) (A) (A) (A) (A)
                 (A) (A) (A) (A) (A) (A) (A) (A) (A) (A) (A) (A)
                 (A) (A) (A) (A) (A) (A) (A) (A) (A) (A) (A) (A)
                 (A) (A) (A) (A) (A) (A) (A) (A) (A) (A) (A) (A)
                 (A) (A) (A) (A) (A) (A) (A) (A) (A) (A) (A) (A)
                 (A) (A) (A) (A) (A) (A) (A) (A) (A) (A) (A) (A)
                 (A) (A) (A) (A) (A) (A) (A) (A) (A) (A) (A) (A)
                 (A) (A) (A) (A) (A) (A) (A) (A) (A) (A) (A) (A)
                 (A) (A) (A) (A) (A) (A) (A) (A) (A) (A) (A) (A)
                 (A) (A) (A) (A) (A) (A) (A) (A) (A) (A) (A) (A)
                 (A) (A) (A) (A) (A) (A) (A) (A) (A) (A) (A) (A)
                 (A) (A) (A) (A) (A) (A) (A) (A) (A) (A) (A) (A)
                 (A) (A) (A) (A) (A) (A) (A) (A) (A) (A) (A) (A)
                 (A) (A) (A) (A) (A) (A) (A) (A) (A) (A) (A) (A)
                 (A) (A) (A) (A) (A) (A) (A) (A) (A) (A) (A) (A)
                 (A) (A) (A) (A) (A) (A) (A) (A) (A) (A) (A) (A)
                 (A) (A) (A) (A) (A) (A) (A) (A) (A) (A) (A) (A)
                 (A) (A) (A) (A) (A) (A) (A) (A) (A) (A) (A) (A)
                 (A) (A) (A) (A) (A) (A) (A) (A) (A) (A) (A) (A)
                 (A) (A) (A) (A) (A) (A) (A) (A) (A) (A) (A) (A)
                 (A) (A) (A)
 The electronic state of the initial guess is 1-A.
 Requested convergence on RMS density matrix=1.00D-08 within 128 cycles.
 Requested convergence on MAX density matrix=1.00D-06.
 Requested convergence on             energy=1.00D-06.
 No special actions if energy rises.
 Keep R1 ints in memory in canonical form, NReq=1162195441.
 SCF Done:  E(RHF) =  -829.754045847     A.U. after   15 cycles
             Convg  =    0.8284D-08             -V/T =  1.9998

 **********************************************************************

            Population analysis using the SCF density.

 **********************************************************************

 Orbital symmetries:
 BldTbl:  Degeneracy threshold= 1.00D-02
       Occupied  (A) (A) (A) (A) (A) (A) (A) (A) (A) (A) (A) (A)
                 (A) (A) (A) (A) (A) (A) (A) (A) (A) (A) (A) (A)
                 (A) (A) (A) (A) (A) (A) (A) (A) (A) (A) (A) (A)
                 (A) (A) (A) (A) (A) (A) (A) (A) (A) (A) (A) (A)
                 (A) (A) (A) (A) (A) (A) (A) (A) (A) (A) (A) (A)
                 (A) (A) (A) (A) (A) (A)
       Virtual   (A) (A) (A) (A) (A) (A) (A) (A) (A) (A) (A) (A)
                 (A) (A) (A) (A) (A) (A) (A) (A) (A) (A) (A) (A)
                 (A) (A) (A) (A) (A) (A) (A) (A) (A) (A) (A) (A)
                 (A) (A) (A) (A) (A) (A) (A) (A) (A) (A) (A) (A)
                 (A) (A) (A) (A) (A) (A) (A) (A) (A) (A) (A) (A)
                 (A) (A) (A) (A) (A) (A) (A) (A) (A) (A) (A) (A)
                 (A) (A) (A) (A) (A) (A) (A) (A) (A) (A) (A) (A)
                 (A) (A) (A) (A) (A) (A) (A) (A) (A) (A) (A) (A)
                 (A) (A) (A) (A) (A) (A) (A) (A) (A) (A) (A) (A)
                 (A) (A) (A) (A) (A) (A) (A) (A) (A) (A) (A) (A)
                 (A) (A) (A) (A) (A) (A) (A) (A) (A) (A) (A) (A)
                 (A) (A) (A) (A) (A) (A) (A) (A) (A) (A) (A) (A)
                 (A) (A) (A) (A) (A) (A) (A) (A) (A) (A) (A) (A)
                 (A) (A) (A) (A) (A) (A) (A) (A) (A) (A) (A) (A)
                 (A) (A) (A) (A) (A) (A) (A) (A) (A) (A) (A) (A)
                 (A) (A) (A) (A) (A) (A) (A) (A) (A) (A) (A) (A)
                 (A) (A) (A) (A) (A) (A) (A) (A) (A) (A) (A) (A)
                 (A) (A) (A) (A) (A) (A) (A) (A) (A) (A) (A) (A)
                 (A) (A) (A) (A) (A) (A) (A) (A) (A) (A) (A) (A)
                 (A) (A) (A) (A) (A) (A) (A) (A) (A) (A) (A) (A)
                 (A) (A) (A)
 The electronic state is 1-A.
 Alpha  occ. eigenvalues --  -20.47175 -15.69391 -15.59515 -15.58171 -15.54614
 Alpha  occ. eigenvalues --  -11.34056 -11.32351 -11.32178 -11.30503 -11.27471
 Alpha  occ. eigenvalues --  -11.26113 -11.26032 -11.24875 -11.24446 -11.23919
 Alpha  occ. eigenvalues --  -11.23736 -11.23586 -11.23119 -11.21018  -1.45585
 Alpha  occ. eigenvalues --   -1.37832  -1.29482  -1.21434  -1.19363  -1.18059
 Alpha  occ. eigenvalues --   -1.11318  -1.06909  -1.05004  -1.03362  -0.95746
 Alpha  occ. eigenvalues --   -0.94069  -0.89825  -0.86793  -0.84577  -0.82502
 Alpha  occ. eigenvalues --   -0.77631  -0.75620  -0.72352  -0.70703  -0.70073
 Alpha  occ. eigenvalues --   -0.69217  -0.68272  -0.65998  -0.64657  -0.64212
 Alpha  occ. eigenvalues --   -0.61341  -0.60544  -0.59631  -0.59188  -0.57574
 Alpha  occ. eigenvalues --   -0.56878  -0.55659  -0.55238  -0.53050  -0.51831
 Alpha  occ. eigenvalues --   -0.51580  -0.49945  -0.47445  -0.45017  -0.43393
 Alpha  occ. eigenvalues --   -0.38870  -0.38520  -0.37566  -0.35603  -0.33750
 Alpha  occ. eigenvalues --   -0.29710
 Alpha virt. eigenvalues --    0.05922   0.12155   0.13301   0.14977   0.19695
 Alpha virt. eigenvalues --    0.22696   0.23342   0.25827   0.27264   0.27722
 Alpha virt. eigenvalues --    0.28857   0.29374   0.30110   0.30848   0.31883
 Alpha virt. eigenvalues --    0.32596   0.33995   0.34746   0.36847   0.37450
 Alpha virt. eigenvalues --    0.38030   0.39420   0.41029   0.41132   0.43793
 Alpha virt. eigenvalues --    0.45636   0.48262   0.49514   0.50896   0.51008
 Alpha virt. eigenvalues --    0.53172   0.53892   0.55753   0.57218   0.58842
 Alpha virt. eigenvalues --    0.60795   0.63344   0.64198   0.66950   0.69544
 Alpha virt. eigenvalues --    0.71083   0.72288   0.72610   0.73273   0.75110
 Alpha virt. eigenvalues --    0.75596   0.76261   0.77171   0.77927   0.78709
 Alpha virt. eigenvalues --    0.79374   0.80472   0.81455   0.82232   0.82411
 Alpha virt. eigenvalues --    0.83300   0.83795   0.84659   0.84837   0.87185
 Alpha virt. eigenvalues --    0.88264   0.89527   0.90639   0.91580   0.92847
 Alpha virt. eigenvalues --    0.93478   0.94795   0.96221   0.96471   0.98426
 Alpha virt. eigenvalues --    0.98914   1.00230   1.01226   1.03812   1.04416
 Alpha virt. eigenvalues --    1.04847   1.05608   1.06705   1.07608   1.08548
 Alpha virt. eigenvalues --    1.09034   1.09708   1.10432   1.11387   1.13553
 Alpha virt. eigenvalues --    1.14067   1.14896   1.16085   1.16377   1.17962
 Alpha virt. eigenvalues --    1.18420   1.18760   1.20837   1.21781   1.22746
 Alpha virt. eigenvalues --    1.22791   1.25111   1.25549   1.27102   1.28873
 Alpha virt. eigenvalues --    1.30614   1.32992   1.34337   1.35722   1.36334
 Alpha virt. eigenvalues --    1.38483   1.39879   1.41036   1.43285   1.44248
 Alpha virt. eigenvalues --    1.45659   1.46606   1.47721   1.48625   1.52571
 Alpha virt. eigenvalues --    1.53312   1.54354   1.55334   1.56658   1.60277
 Alpha virt. eigenvalues --    1.62389   1.63649   1.63992   1.65706   1.68156
 Alpha virt. eigenvalues --    1.69601   1.69980   1.70913   1.72978   1.74536
 Alpha virt. eigenvalues --    1.74703   1.75470   1.76427   1.77511   1.79458
 Alpha virt. eigenvalues --    1.80757   1.81909   1.85964   1.89333   1.93798
 Alpha virt. eigenvalues --    1.97222   2.00455   2.03761   2.04899   2.05929
 Alpha virt. eigenvalues --    2.09966   2.10037   2.12658   2.14759   2.17491
 Alpha virt. eigenvalues --    2.18041   2.19005   2.19545   2.20395   2.21066
 Alpha virt. eigenvalues --    2.21885   2.24376   2.24721   2.29766   2.30810
 Alpha virt. eigenvalues --    2.32180   2.33801   2.34450   2.36973   2.41838
 Alpha virt. eigenvalues --    2.42491   2.44393   2.45030   2.47047   2.47478
 Alpha virt. eigenvalues --    2.48987   2.50962   2.51909   2.53663   2.56118
 Alpha virt. eigenvalues --    2.56268   2.58425   2.58780   2.59587   2.61394
 Alpha virt. eigenvalues --    2.63328   2.63996   2.64723   2.65725   2.67192
 Alpha virt. eigenvalues --    2.68517   2.69560   2.69943   2.71195   2.73115
 Alpha virt. eigenvalues --    2.76203   2.79394   2.80749   2.86351   2.91692
 Alpha virt. eigenvalues --    2.93395   2.94887   2.96979   2.97881   3.00052
 Alpha virt. eigenvalues --    3.04173   3.05757   3.06843   3.08785   3.10636
 Alpha virt. eigenvalues --    3.12116   3.12879   3.16618   3.17733   3.18599
 Alpha virt. eigenvalues --    3.22769   3.25196   3.26214   3.28019   3.33328
 Alpha virt. eigenvalues --    3.34319   3.40244   3.48325   3.48650   3.63316
 Alpha virt. eigenvalues --    3.69020   3.79905   3.86692   3.99476   4.32501
 Alpha virt. eigenvalues --    4.38240   4.48264   4.48652   4.54490   4.55283
 Alpha virt. eigenvalues --    4.56865   4.61578   4.63389   4.66015   4.70440
 Alpha virt. eigenvalues --    4.75197   4.79501   4.83832   4.87330   4.99233
 Alpha virt. eigenvalues --    5.06631   5.16764   5.22886
          Condensed to atoms (all electrons):
              1          2          3          4          5          6
     1  N    7.074949   0.185973  -0.000190   0.365673  -0.064941  -0.048299
     2  C    0.185973   4.595512   0.004540  -0.057459   0.388807  -0.021246
     3  O   -0.000190   0.004540   8.174098   0.000001   0.000018   0.000000
     4  C    0.365673  -0.057459   0.000001   4.555264  -0.035764   0.585601
     5  N   -0.064941   0.388807   0.000018  -0.035764   7.008254  -0.055398
     6  C   -0.048299  -0.021246   0.000000   0.585601  -0.055398   5.175755
     7  N    0.258537  -0.123542   0.000270  -0.065639   0.002865   0.002541
     8  C   -0.014935  -0.072948   0.000001  -0.044128   0.517359   0.460452
     9  N   -0.000349   0.001405  -0.132085   0.000005  -0.030014  -0.000031
    10  C   -0.134613  -0.061980   0.001898   0.003029   0.002277  -0.000425
    11  C   -0.045884   0.468938  -0.115645   0.007267  -0.057077   0.001819
    12  C   -0.052466   0.005787   0.000000   0.364624   0.000190  -0.053878
    13  C    0.002228  -0.000079   0.000000  -0.036828  -0.000010  -0.007121
    14  C   -0.000097   0.000000   0.000000   0.003518   0.000000   0.000198
    15  C    0.000008   0.000000   0.000000   0.000322   0.000000   0.000016
    16  C   -0.006583  -0.000050   0.000000  -0.036504   0.000007   0.002422
    17  C    0.000145  -0.000002   0.000000   0.004024   0.000000  -0.000119
    18  C    0.006435  -0.040676   0.687210  -0.000045   0.003753   0.000042
    19  C    0.000001   0.000000   0.000000  -0.000155   0.000000  -0.000006
    20  H    0.002315   0.000350   0.000000  -0.025866   0.004020   0.374707
    21  H   -0.000408   0.003351   0.000000   0.001936  -0.034693  -0.047534
    22  H    0.002639   0.002220   0.002153  -0.000019  -0.000030   0.000001
    23  H   -0.000014   0.000004   0.000000   0.000014  -0.000002   0.003035
    24  H    0.000000   0.000000   0.000000   0.000006   0.000000   0.000000
    25  H   -0.000837   0.000225   0.000000  -0.005156   0.000003   0.000024
    26  H   -0.000002   0.000000   0.000000  -0.000121   0.000000   0.000001
    27  H    0.000009  -0.000286   0.006031   0.000000   0.000405   0.000000
    28  H    0.000442  -0.003022   0.003197  -0.000018   0.024051   0.000169
    29  H    0.000000   0.000000   0.000000   0.000002   0.000000   0.000000
    30  H    0.000000   0.000000   0.000000  -0.000001   0.000000   0.000000
    31  H    0.000000   0.000000   0.000000   0.000005   0.000000  -0.000002
              7          8          9         10         11         12
     1  N    0.258537  -0.014935  -0.000349  -0.134613  -0.045884  -0.052466
     2  C   -0.123542  -0.072948   0.001405  -0.061980   0.468938   0.005787
     3  O    0.000270   0.000001  -0.132085   0.001898  -0.115645   0.000000
     4  C   -0.065639  -0.044128   0.000005   0.003029   0.007267   0.364624
     5  N    0.002865   0.517359  -0.030014   0.002277  -0.057077   0.000190
     6  C    0.002541   0.460452  -0.000031  -0.000425   0.001819  -0.053878
     7  N    6.900574  -0.000175  -0.000046   0.463700  -0.051087   0.005283
     8  C   -0.000175   4.633717  -0.000160  -0.000083  -0.000018   0.003274
     9  N   -0.000046  -0.000160   7.336782   0.003048  -0.131266   0.000000
    10  C    0.463700  -0.000083   0.003048   4.672672   0.560498   0.000355
    11  C   -0.051087  -0.000018  -0.131266   0.560498   5.436839  -0.000535
    12  C    0.005283   0.003274   0.000000   0.000355  -0.000535   4.789803
    13  C   -0.000002   0.000191   0.000000  -0.000003   0.000004   0.558264
    14  C   -0.000036   0.000000   0.000000   0.000000   0.000000  -0.034715
    15  C    0.000040   0.000000   0.000000   0.000000   0.000000  -0.036675
    16  C   -0.013132  -0.000130   0.000000  -0.000346   0.000069   0.544634
    17  C   -0.000602   0.000002   0.000000  -0.000004   0.000000  -0.027820
    18  C    0.006791   0.000033   0.319601  -0.030077   0.318103  -0.000002
    19  C    0.000000   0.000000   0.000000   0.000000   0.000000   0.001999
    20  H   -0.000045  -0.023772   0.000000   0.000005   0.000011  -0.001496
    21  H    0.000005   0.399227   0.000047   0.000001   0.000041  -0.000064
    22  H   -0.028433   0.000003   0.000030   0.382962  -0.027582  -0.000009
    23  H    0.000003  -0.000053   0.000000   0.000000   0.000001  -0.034547
    24  H    0.000000   0.000000   0.000000   0.000000   0.000000   0.000216
    25  H    0.007752   0.000017   0.000000   0.000020  -0.000113  -0.034927
    26  H   -0.000024   0.000000   0.000000   0.000000   0.000000   0.001818
    27  H    0.000001   0.000002   0.312866  -0.000036   0.006614   0.000000
    28  H   -0.000038  -0.000315   0.287917  -0.000054   0.000663   0.000000
    29  H    0.000000   0.000000   0.000000   0.000000   0.000000   0.000023
    30  H    0.000000   0.000000   0.000000   0.000000   0.000000   0.000010
    31  H    0.000000   0.000000   0.000000   0.000000   0.000000  -0.000089
             13         14         15         16         17         18
     1  N    0.002228  -0.000097   0.000008  -0.006583   0.000145   0.006435
     2  C   -0.000079   0.000000   0.000000  -0.000050  -0.000002  -0.040676
     3  O    0.000000   0.000000   0.000000   0.000000   0.000000   0.687210
     4  C   -0.036828   0.003518   0.000322  -0.036504   0.004024  -0.000045
     5  N   -0.000010   0.000000   0.000000   0.000007   0.000000   0.003753
     6  C   -0.007121   0.000198   0.000016   0.002422  -0.000119   0.000042
     7  N   -0.000002  -0.000036   0.000040  -0.013132  -0.000602   0.006791
     8  C    0.000191   0.000000   0.000000  -0.000130   0.000002   0.000033
     9  N    0.000000   0.000000   0.000000   0.000000   0.000000   0.319601
    10  C   -0.000003   0.000000   0.000000  -0.000346  -0.000004  -0.030077
    11  C    0.000004   0.000000   0.000000   0.000069   0.000000   0.318103
    12  C    0.558264  -0.034715  -0.036675   0.544634  -0.027820  -0.000002
    13  C    4.939478   0.558374  -0.036349  -0.036215  -0.049486   0.000000
    14  C    0.558374   4.794867   0.594979  -0.044362  -0.038549   0.000000
    15  C   -0.036349   0.594979   4.893531  -0.048163   0.541482   0.000000
    16  C   -0.036215  -0.044362  -0.048163   4.894254   0.558306   0.000001
    17  C   -0.049486  -0.038549   0.541482   0.558306   4.882581   0.000000
    18  C    0.000000   0.000000   0.000000   0.000001   0.000000   3.951568
    19  C   -0.054450   0.317360  -0.046588   0.000549   0.004992   0.000000
    20  H    0.002103  -0.000009   0.000000   0.000174  -0.000024  -0.000001
    21  H   -0.000005   0.000000   0.000000   0.000001   0.000000  -0.000008
    22  H    0.000000   0.000000   0.000000   0.000002   0.000000   0.000603
    23  H    0.375081  -0.028544   0.002653   0.003025   0.000074   0.000000
    24  H    0.003236  -0.031584   0.380323   0.003033  -0.030194   0.000000
    25  H    0.003195   0.000294   0.002879   0.377272  -0.024126  -0.000002
    26  H    0.000532   0.002267  -0.029162  -0.026690   0.380124   0.000000
    27  H    0.000000   0.000000   0.000000   0.000000   0.000000  -0.013997
    28  H    0.000000   0.000000   0.000000   0.000000   0.000000  -0.010463
    29  H    0.003544  -0.049725  -0.002985  -0.000044   0.000576   0.000000
    30  H   -0.003787  -0.042144   0.000510   0.000021  -0.000150   0.000000
    31  H   -0.004045  -0.042171   0.000553   0.000032  -0.000145   0.000000
             19         20         21         22         23         24
     1  N    0.000001   0.002315  -0.000408   0.002639  -0.000014   0.000000
     2  C    0.000000   0.000350   0.003351   0.002220   0.000004   0.000000
     3  O    0.000000   0.000000   0.000000   0.002153   0.000000   0.000000
     4  C   -0.000155  -0.025866   0.001936  -0.000019   0.000014   0.000006
     5  N    0.000000   0.004020  -0.034693  -0.000030  -0.000002   0.000000
     6  C   -0.000006   0.374707  -0.047534   0.000001   0.003035   0.000000
     7  N    0.000000  -0.000045   0.000005  -0.028433   0.000003   0.000000
     8  C    0.000000  -0.023772   0.399227   0.000003  -0.000053   0.000000
     9  N    0.000000   0.000000   0.000047   0.000030   0.000000   0.000000
    10  C    0.000000   0.000005   0.000001   0.382962   0.000000   0.000000
    11  C    0.000000   0.000011   0.000041  -0.027582   0.000001   0.000000
    12  C    0.001999  -0.001496  -0.000064  -0.000009  -0.034547   0.000216
    13  C   -0.054450   0.002103  -0.000005   0.000000   0.375081   0.003236
    14  C    0.317360  -0.000009   0.000000   0.000000  -0.028544  -0.031584
    15  C   -0.046588   0.000000   0.000000   0.000000   0.002653   0.380323
    16  C    0.000549   0.000174   0.000001   0.000002   0.003025   0.003033
    17  C    0.004992  -0.000024   0.000000   0.000000   0.000074  -0.030194
    18  C    0.000000  -0.000001  -0.000008   0.000603   0.000000   0.000000
    19  C    5.108501  -0.000001   0.000000   0.000000  -0.001910  -0.005511
    20  H   -0.000001   0.431268   0.000791   0.000000   0.000680   0.000000
    21  H    0.000000   0.000791   0.437071   0.000000   0.000003   0.000000
    22  H    0.000000   0.000000   0.000000   0.398344   0.000000   0.000000
    23  H   -0.001910   0.000680   0.000003   0.000000   0.464925  -0.000119
    24  H   -0.005511   0.000000   0.000000   0.000000  -0.000119   0.471483
    25  H    0.000008   0.000003   0.000000  -0.000005  -0.000126  -0.000125
    26  H   -0.000160   0.000000   0.000000   0.000000   0.000015  -0.001632
    27  H    0.000000   0.000000   0.000000   0.000000   0.000000   0.000000
    28  H    0.000000  -0.000003  -0.000183  -0.000007   0.000000   0.000000
    29  H    0.403012   0.000000   0.000000   0.000000  -0.000022   0.002511
    30  H    0.391379   0.000001   0.000000   0.000000   0.000917   0.000137
    31  H    0.390308  -0.000003   0.000000   0.000000   0.001158   0.000156
             25         26         27         28         29         30
     1  N   -0.000837  -0.000002   0.000009   0.000442   0.000000   0.000000
     2  C    0.000225   0.000000  -0.000286  -0.003022   0.000000   0.000000
     3  O    0.000000   0.000000   0.006031   0.003197   0.000000   0.000000
     4  C   -0.005156  -0.000121   0.000000  -0.000018   0.000002  -0.000001
     5  N    0.000003   0.000000   0.000405   0.024051   0.000000   0.000000
     6  C    0.000024   0.000001   0.000000   0.000169   0.000000   0.000000
     7  N    0.007752  -0.000024   0.000001  -0.000038   0.000000   0.000000
     8  C    0.000017   0.000000   0.000002  -0.000315   0.000000   0.000000
     9  N    0.000000   0.000000   0.312866   0.287917   0.000000   0.000000
    10  C    0.000020   0.000000  -0.000036  -0.000054   0.000000   0.000000
    11  C   -0.000113   0.000000   0.006614   0.000663   0.000000   0.000000
    12  C   -0.034927   0.001818   0.000000   0.000000   0.000023   0.000010
    13  C    0.003195   0.000532   0.000000   0.000000   0.003544  -0.003787
    14  C    0.000294   0.002267   0.000000   0.000000  -0.049725  -0.042144
    15  C    0.002879  -0.029162   0.000000   0.000000  -0.002985   0.000510
    16  C    0.377272  -0.026690   0.000000   0.000000  -0.000044   0.000021
    17  C   -0.024126   0.380124   0.000000   0.000000   0.000576  -0.000150
    18  C   -0.000002   0.000000  -0.013997  -0.010463   0.000000   0.000000
    19  C    0.000008  -0.000160   0.000000   0.000000   0.403012   0.391379
    20  H    0.000003   0.000000   0.000000  -0.000003   0.000000   0.000001
    21  H    0.000000   0.000000   0.000000  -0.000183   0.000000   0.000000
    22  H   -0.000005   0.000000   0.000000  -0.000007   0.000000   0.000000
    23  H   -0.000126   0.000015   0.000000   0.000000  -0.000022   0.000917
    24  H   -0.000125  -0.001632   0.000000   0.000000   0.002511   0.000137
    25  H    0.444274  -0.001915   0.000000   0.000000   0.000000   0.000000
    26  H   -0.001915   0.460943   0.000000   0.000000  -0.000008   0.000003
    27  H    0.000000   0.000000   0.309226  -0.010606   0.000000   0.000000
    28  H    0.000000   0.000000  -0.010606   0.272771   0.000000   0.000000
    29  H    0.000000  -0.000008   0.000000   0.000000   0.512684  -0.022662
    30  H    0.000000   0.000003   0.000000   0.000000  -0.022662   0.521396
    31  H    0.000000   0.000003   0.000000   0.000000  -0.023099  -0.026968
             31
     1  N    0.000000
     2  C    0.000000
     3  O    0.000000
     4  C    0.000005
     5  N    0.000000
     6  C   -0.000002
     7  N    0.000000
     8  C    0.000000
     9  N    0.000000
    10  C    0.000000
    11  C    0.000000
    12  C   -0.000089
    13  C   -0.004045
    14  C   -0.042171
    15  C    0.000553
    16  C    0.000032
    17  C   -0.000145
    18  C    0.000000
    19  C    0.390308
    20  H   -0.000003
    21  H    0.000000
    22  H    0.000000
    23  H    0.001158
    24  H    0.000156
    25  H    0.000000
    26  H    0.000003
    27  H    0.000000
    28  H    0.000000
    29  H   -0.023099
    30  H   -0.026968
    31  H    0.528739
 Mulliken atomic charges:
              1
     1  N   -0.529734
     2  C    0.724177
     3  O   -0.631497
     4  C    0.416412
     5  N   -0.674080
     6  C   -0.372725
     7  N   -0.365563
     8  C    0.142441
     9  N   -0.967752
    10  C    0.137155
    11  C   -0.371657
    12  C    0.000943
    13  C   -0.217847
    14  C    0.040079
    15  C   -0.217375
    16  C   -0.171583
    17  C   -0.201085
    18  C    0.801129
    19  C   -0.509326
    20  H    0.234793
    21  H    0.240422
    22  H    0.267127
    23  H    0.213751
    24  H    0.208062
    25  H    0.231364
    26  H    0.214006
    27  H    0.389771
    28  H    0.435498
    29  H    0.176191
    30  H    0.181338
    31  H    0.175565
 Sum of Mulliken atomic charges =   0.00000
 Mulliken charges with hydrogens summed into heavy atoms:
              1
     1  N   -0.529734
     2  C    0.724177
     3  O   -0.631497
     4  C    0.416412
     5  N   -0.674080
     6  C   -0.137931
     7  N   -0.365563
     8  C    0.382864
     9  N   -0.142484
    10  C    0.404282
    11  C   -0.371657
    12  C    0.000943
    13  C   -0.004096
    14  C    0.040079
    15  C   -0.009313
    16  C    0.059781
    17  C    0.012921
    18  C    0.801129
    19  C    0.023767
 Sum of Mulliken charges with hydrogens summed into heavy atoms =   0.00000
 DipInt: DoE/N= T F RetVal/Mat= T F Init=T NMatP=  1 IDeriv=0 Min/MaxMlt=  0  4
 Entering OneElI...
 OneElI was handed  2147237083 working-precision words.
 Multipole integrals L=0 to 4 MinM= 0 MaxM= 0.
 Requested accuracy = 0.1000D-12
 PrsmSu:  NPrtUS=   1 ThrOK=F IAlg=1
 PRISM was handed  2146874259 working-precision words and  3923 shell-pairs
 IPart=  0 NShTot=        3923 NBatch=          48 AvBLen=        81.7
 Electronic moments (au):
       -132.00000000          2.45557906          1.90945601         -0.73785177
      -4665.81180482       -876.87330676       -242.34752266        -10.64174766
          5.38971456          2.02338382      -2573.35207861       -649.21087184
        -25.62285938        639.68566331       1965.70494213      -2261.54481130
       -786.11195359         93.75657443        304.45848251      -1241.52314208
    -324559.84110340     -14754.13156226      -1702.43007088      -9822.10422352
     -10063.21279727       1529.08888724        926.27762306       -725.98611108
       -511.54931578     -21457.06394514     -11512.00920584      -1735.32992963
      -2586.50662712       1479.68560480          4.66867709
 Electronic spatial extent (au):  <R**2>=           5785.0326
 DipInt: DoE/N= F T RetVal/Mat= T F Init=T NMatP=  1 IDeriv=0 Min/MaxMlt=  0  4
 Nuclear    moments (au):
        132.00000000          0.00000000          0.00000000          0.00000000
       4577.39388402        802.64829799        160.22263699          0.00000000
          0.00000000          0.00000000       2742.79353841        682.12005919
         30.23566097       -632.82851049      -1875.30675046       2223.42696089
        780.46106422        -97.07708214       -322.64203622       1250.30227076
     307985.39995638      12069.72509725        835.07233312       8456.06895601
      10562.86368923      -1578.39281144       -975.41377776        737.25112194
        530.12419711      18085.36367564       8484.75473957       1084.35686719
       2746.90795927      -1485.05495891        -23.39779284
 Total      moments (au):
          0.00000000          2.45557906          1.90945601         -0.73785177
        -88.41792080        -74.22500877        -82.12488566        -10.64174766
          5.38971456          2.02338382        169.44145980         32.90918734
          4.61280159          6.85715282         90.39819167        -38.11785040
         -5.65088937         -3.32050771        -18.18355371          8.77912868
     -16574.44114702      -2684.40646502       -867.35773776      -1366.03526751
        499.65089196        -49.30392420        -49.13615471         11.26501086
         18.57488133      -3371.70026949      -3027.25446627       -650.97306244
        160.40133215         -5.36935411        -18.72911575
 Traceless Quadrup. (au):
         -6.82864905          7.36426297         -0.53561392        -10.64174766
          5.38971456          2.02338382
 Charge=              0.0000 electrons
 Dipole moment (field-independent basis, Debye):
    X=              6.2415    Y=              4.8534    Z=             -1.8754  Tot=              8.1258
 Quadrupole moment (field-independent basis, Debye-Ang):
   XX=           -118.9251   YY=            -99.8352   ZZ=           -110.4608
   XY=            -14.3135   XZ=              7.2494   YZ=              2.7215
 Traceless Quadrupole moment (field-independent basis, Debye-Ang):
   XX=             -9.1848   YY=              9.9052   ZZ=             -0.7204
   XY=            -14.3135   XZ=              7.2494   YZ=              2.7215
 Octapole moment (field-independent basis, Debye-Ang**2):
  XXX=            120.6019  YYY=             23.4235  ZZZ=              3.2832  XYY=              4.8807
  XXY=             64.3419  XXZ=            -27.1308  XZZ=             -4.0221  YZZ=             -2.3634
  YYZ=            -12.9424  XYZ=              6.2486
 Hexadecapole moment (field-independent basis, Debye-Ang**3):
 XXXX=          -6242.7289 YYYY=          -1011.0761 ZZZZ=           -326.6885 XXXY=           -514.5144
 XXXZ=            188.1925 YYYX=            -18.5702 YYYZ=            -18.5070 ZZZX=              4.2429
 ZZZY=              6.9962 XXYY=          -1269.9439 XXZZ=          -1140.2091 YYZZ=           -245.1877
 XXYZ=             60.4148 YYXZ=             -2.0224 ZZXY=             -7.0543
 N-N= 1.345221149681D+03 E-N=-4.629525851960D+03  KE= 8.298794829551D+02
 Entering OneElI...
 OneElI was handed  2147045037 working-precision words.
 Calculate electrostatic properties
    NBasis =   309  MinDer = 0  MaxDer = 0
    NGrid  =    31  NMatD  =   1
 Requested accuracy = 0.1000D-12
 PrsmSu:  NPrtUS=  12 ThrOK=T IAlg=1
 PRISM was handed   178791385 working-precision words and  3507 shell-pairs
 PRISM was handed   178791385 working-precision words and  3507 shell-pairs
 PRISM was handed   178791385 working-precision words and  3507 shell-pairs
 PRISM was handed   178791385 working-precision words and  3507 shell-pairs
 PRISM was handed   178791385 working-precision words and  3507 shell-pairs
 PRISM was handed   178791385 working-precision words and  3507 shell-pairs
 PRISM was handed   178791385 working-precision words and  3507 shell-pairs
 PRISM was handed   178791385 working-precision words and  3507 shell-pairs
 PRISM was handed   178791385 working-precision words and  3507 shell-pairs
 PRISM was handed   178791385 working-precision words and  3507 shell-pairs
 PRISM was handed   178791385 working-precision words and  3507 shell-pairs
 PRISM was handed   178791385 working-precision words and  3507 shell-pairs
 IPart=  0 NShTot=        9610 NBatch=         310 AvBLen=        31.0
 IPart= 11 NShTot=        8463 NBatch=         273 AvBLen=        31.0
 IPart=  9 NShTot=        8587 NBatch=         277 AvBLen=        31.0
 IPart= 10 NShTot=        8494 NBatch=         274 AvBLen=        31.0
 IPart=  7 NShTot=        8866 NBatch=         286 AvBLen=        31.0
 IPart=  8 NShTot=        8742 NBatch=         282 AvBLen=        31.0
 IPart=  4 NShTot=        9300 NBatch=         300 AvBLen=        31.0
 IPart=  5 NShTot=        9207 NBatch=         297 AvBLen=        31.0
 IPart=  1 NShTot=        9548 NBatch=         308 AvBLen=        31.0
 IPart=  3 NShTot=        9331 NBatch=         301 AvBLen=        31.0
 IPart=  6 NShTot=        9145 NBatch=         295 AvBLen=        31.0
 IPart=  2 NShTot=        9424 NBatch=         304 AvBLen=        31.0
 --------------------------------------------------------
       Center         ----      EFG at Nuclei      ----
                      3XX-RR        3YY-RR        3ZZ-RR
 --------------------------------------------------------
     1   Atom       -0.013255     -0.271627      0.284882
     2   Atom        0.101559      0.179408     -0.280967
     3   Atom        0.723979     -0.085433     -0.638547
     4   Atom        0.150504      0.260126     -0.410631
     5   Atom        0.917209     -0.394573     -0.522636
     6   Atom        0.113716      0.047487     -0.161203
     7   Atom        0.761215     -0.909628      0.148412
     8   Atom        0.247738      0.225172     -0.472910
     9   Atom       -0.521359     -0.228700      0.750059
    10   Atom        0.150589      0.265110     -0.415699
    11   Atom        0.025113     -0.051487      0.026374
    12   Atom        0.002738      0.059700     -0.062438
    13   Atom        0.168009     -0.029552     -0.138456
    14   Atom        0.123159      0.024762     -0.147922
    15   Atom        0.111293      0.015259     -0.126553
    16   Atom        0.167964     -0.018512     -0.149452
    17   Atom        0.185686     -0.029882     -0.155804
    18   Atom        0.294202      0.150105     -0.444307
    19   Atom       -0.025426      0.015483      0.009943
    20   Atom       -0.146584     -0.018190      0.164774
    21   Atom        0.138634     -0.288249      0.149616
    22   Atom        0.110780     -0.254985      0.144205
    23   Atom        0.139519     -0.157645      0.018126
    24   Atom       -0.235064      0.074174      0.160890
    25   Atom       -0.112047      0.082314      0.029733
    26   Atom        0.140882     -0.159748      0.018866
    27   Atom       -0.396201      0.168535      0.227667
    28   Atom       -0.015109     -0.157577      0.172686
    29   Atom       -0.149241      0.009818      0.139423
    30   Atom        0.130545      0.156445     -0.286990
    31   Atom        0.135829     -0.250164      0.114335
 --------------------------------------------------------
                        XY            XZ            YZ
 --------------------------------------------------------
     1   Atom       -0.051528      0.043403      0.103071
     2   Atom        0.161942     -0.046509     -0.082432
     3   Atom       -1.088170      0.321339     -0.179082
     4   Atom       -0.161692     -0.003944     -0.105498
     5   Atom       -0.396637     -0.023274     -0.002084
     6   Atom       -0.014290     -0.022053     -0.033865
     7   Atom       -0.596467      0.052301      0.222097
     8   Atom       -0.073356     -0.029962     -0.117421
     9   Atom        0.078524      0.019215      0.437352
    10   Atom       -0.041969     -0.030212     -0.108890
    11   Atom       -0.081536      0.016847      0.019821
    12   Atom        0.024203      0.088282      0.207870
    13   Atom       -0.073597      0.086547      0.180364
    14   Atom       -0.086305      0.075344      0.246917
    15   Atom       -0.023236      0.114974      0.255817
    16   Atom       -0.084487      0.079424      0.233915
    17   Atom       -0.058025      0.116053      0.218170
    18   Atom        0.046565     -0.062740     -0.240667
    19   Atom       -0.009732     -0.017799      0.002112
    20   Atom       -0.214422      0.058161      0.048984
    21   Atom        0.069293     -0.010392      0.072874
    22   Atom       -0.134374      0.024132      0.075511
    23   Atom        0.053724      0.028714     -0.223674
    24   Atom        0.177938      0.012936     -0.019943
    25   Atom       -0.123878     -0.190377     -0.108827
    26   Atom        0.055508      0.030555     -0.222028
    27   Atom        0.067017     -0.003560      0.022837
    28   Atom       -0.218140      0.091017      0.147703
    29   Atom        0.203125      0.059734     -0.050704
    30   Atom       -0.000945      0.085666     -0.002598
    31   Atom       -0.075208      0.020192      0.130328
 --------------------------------------------------------


 ---------------------------------------------------------------------------------
              Nuclear Quadrupole in Principal Axis System
 ---------------------------------------------------------------------------------

       Atom             a.u.   MegaHertz   Gauss  10(-4) cm-1        Axes

              Baa    -0.3020   -11.647    -4.156    -3.885  0.1994  0.9625 -0.1838
     1 N(14)  Bbb    -0.0050    -0.192    -0.068    -0.064  0.9741 -0.2151 -0.0694
              Bcc     0.3070    11.839     4.224     3.949  0.1063  0.1652  0.9805
 
              Baa    -0.2962   -39.753   -14.185   -13.260  0.0531  0.1529  0.9868
     2 C(13)  Bbb    -0.0253    -3.398    -1.213    -1.134  0.7932 -0.6068  0.0513
              Bcc     0.3216    43.152    15.398    14.394  0.6066  0.7800 -0.1535
 
              Baa    -0.8503    61.526    21.954    20.523  0.5847  0.7782 -0.2292
     3 O(17)  Bbb    -0.6915    50.034    17.853    16.690 -0.0004  0.2828  0.9592
              Bcc     1.5417  -111.560   -39.807   -37.212  0.8113 -0.5608  0.1656
 
              Baa    -0.4283   -57.477   -20.509   -19.172  0.0523  0.1633  0.9852
     4 C(13)  Bbb     0.0434     5.823     2.078     1.942  0.8245  0.5495 -0.1348
              Bcc     0.3849    51.654    18.431    17.230 -0.5634  0.8194 -0.1059
 
              Baa    -0.5262   -20.294    -7.241    -6.769  0.1109  0.3488  0.9306
     5 N(14)  Bbb    -0.5019   -19.358    -6.908    -6.457  0.2450  0.8979 -0.3657
              Bcc     1.0281    39.652    14.149    13.227  0.9632 -0.2685 -0.0141
 
              Baa    -0.1686   -22.626    -8.073    -7.547  0.0849  0.1597  0.9835
     6 C(13)  Bbb     0.0511     6.857     2.447     2.287  0.1613  0.9718 -0.1718
              Bcc     0.1175    15.768     5.626     5.260  0.9832 -0.1732 -0.0568
 
              Baa    -1.1408   -44.000   -15.700   -14.677  0.2990  0.9383 -0.1738
     7 N(14)  Bbb     0.1881     7.256     2.589     2.420  0.0750  0.1584  0.9845
              Bcc     0.9527    36.744    13.111    12.256  0.9513 -0.3074 -0.0230
 
              Baa    -0.4945   -66.352   -23.676   -22.133  0.0562  0.1664  0.9845
     8 C(13)  Bbb     0.1797    24.118     8.606     8.045  0.6909  0.7053 -0.1586
              Bcc     0.3147    42.235    15.070    14.088  0.7208 -0.6891  0.0753
 
              Baa    -0.5512   -21.260    -7.586    -7.091  0.9191 -0.3773  0.1132
     9 N(14)  Bbb    -0.3673   -14.164    -5.054    -4.725  0.3927  0.8541 -0.3411
              Bcc     0.9185    35.424    12.640    11.816  0.0320  0.3580  0.9332
 
              Baa    -0.4350   -58.366   -20.827   -19.469  0.0621  0.1570  0.9856
    10 C(13)  Bbb     0.1431    19.207     6.853     6.407  0.9649  0.2431 -0.0995
              Bcc     0.2918    39.160    13.973    13.062 -0.2553  0.9572 -0.1364
 
              Baa    -0.1082   -14.520    -5.181    -4.843  0.5296  0.8271 -0.1881
    11 C(13)  Bbb     0.0310     4.165     1.486     1.389  0.0359  0.1997  0.9792
              Bcc     0.0772    10.356     3.695     3.454  0.8475 -0.5254  0.0761
 
              Baa    -0.2322   -31.154   -11.116   -10.392 -0.2439 -0.5491  0.7994
    12 C(13)  Bbb    -0.0060    -0.804    -0.287    -0.268  0.9218 -0.3874  0.0151
              Bcc     0.2381    31.957    11.403    10.660  0.3014  0.7405  0.6006
 
              Baa    -0.2999   -40.241   -14.359   -13.423 -0.2355 -0.5830  0.7776
    13 C(13)  Bbb     0.1038    13.933     4.972     4.648  0.0759  0.7867  0.6127
              Bcc     0.1961    26.308     9.387     8.776  0.9689 -0.2033  0.1411
 
              Baa    -0.3495   -46.897   -16.734   -15.643 -0.2300 -0.5723  0.7871
    14 C(13)  Bbb     0.1384    18.572     6.627     6.195  0.8954  0.1924  0.4015
              Bcc     0.2111    28.325    10.107     9.448 -0.3812  0.7971  0.4683
 
              Baa    -0.3458   -46.397   -16.555   -15.476 -0.2272 -0.5727  0.7876
    15 C(13)  Bbb     0.1107    14.861     5.303     4.957  0.8685 -0.4851 -0.1022
              Bcc     0.2350    31.536    11.253    10.519  0.4406  0.6608  0.6076
 
              Baa    -0.3521   -47.243   -16.858   -15.759 -0.2150 -0.5967  0.7731
    16 C(13)  Bbb     0.1506    20.207     7.211     6.740  0.3944  0.6712  0.6277
              Bcc     0.2015    27.036     9.647     9.018  0.8934 -0.4399 -0.0910
 
              Baa    -0.3504   -47.016   -16.776   -15.683 -0.2321 -0.5757  0.7840
    17 C(13)  Bbb     0.1284    17.228     6.147     5.747 -0.2418  0.8149  0.5268
              Bcc     0.2220    29.788    10.629     9.936  0.9422  0.0673  0.3283
 
              Baa    -0.5318   -71.369   -25.466   -23.806  0.0531  0.3291  0.9428
    18 C(13)  Bbb     0.1943    26.076     9.304     8.698 -0.5343  0.8070 -0.2516
              Bcc     0.3375    45.293    16.162    15.108  0.8436  0.4904 -0.2186
 
              Baa    -0.0342    -4.589    -1.637    -1.531  0.9175  0.1644  0.3621
    19 C(13)  Bbb     0.0115     1.540     0.550     0.514  0.1438  0.7119 -0.6874
              Bcc     0.0227     3.048     1.088     1.017 -0.3708  0.6827  0.6296
 
              Baa    -0.3181  -169.747   -60.570   -56.621  0.7915  0.5911 -0.1553
    20 H(1)   Bbb     0.1409    75.164    26.820    25.072 -0.6092  0.7834 -0.1230
              Bcc     0.1773    94.583    33.750    31.550  0.0489  0.1920  0.9802
 
              Baa    -0.3110  -165.923   -59.205   -55.346 -0.1540  0.9754 -0.1578
    21 H(1)   Bbb     0.1495    79.764    28.462    26.606  0.9858  0.1407 -0.0920
              Bcc     0.1615    86.159    30.744    28.739  0.0676  0.1697  0.9832
 
              Baa    -0.3128  -166.892   -59.551   -55.669  0.3068  0.9363 -0.1709
    22 H(1)   Bbb     0.1547    82.558    29.459    27.538  0.9445 -0.2773  0.1764
              Bcc     0.1581    84.334    30.093    28.131 -0.1178  0.2155  0.9694
 
              Baa    -0.3181  -169.722   -60.561   -56.613 -0.1312  0.8202  0.5568
    23 H(1)   Bbb     0.1458    77.814    27.766    25.956  0.9590 -0.0373  0.2810
              Bcc     0.1723    91.908    32.795    30.657 -0.2512 -0.5709  0.7816
 
              Baa    -0.3170  -169.145   -60.355   -56.421  0.9087 -0.4154 -0.0419
    24 H(1)   Bbb     0.1453    77.546    27.670    25.867  0.3515  0.7068  0.6140
              Bcc     0.1717    91.599    32.685    30.554 -0.2254 -0.5726  0.7882
 
              Baa    -0.3124  -166.695   -59.481   -55.603  0.7496  0.3839  0.5392
    25 H(1)   Bbb     0.1380    73.613    26.267    24.555 -0.5951  0.7475  0.2951
              Bcc     0.1745    93.081    33.214    31.049 -0.2898 -0.5421  0.7888
 
              Baa    -0.3184  -169.897   -60.624   -56.672 -0.1361  0.8218  0.5533
    26 H(1)   Bbb     0.1480    78.962    28.176    26.339  0.9556 -0.0383  0.2921
              Bcc     0.1704    90.935    32.448    30.333 -0.2612 -0.5685  0.7801
 
              Baa    -0.4041  -215.612   -76.936   -71.920  0.9931 -0.1166  0.0098
    27 H(1)   Bbb     0.1681    89.673    31.997    29.912  0.1127  0.9301 -0.3497
              Bcc     0.2360   125.939    44.938    42.009  0.0317  0.3484  0.9368
 
              Baa    -0.3709  -197.901   -70.616   -66.013  0.5532  0.7758 -0.3034
    28 H(1)   Bbb     0.1414    75.430    26.915    25.161  0.8308 -0.5403  0.1335
              Bcc     0.2295   122.471    43.701    40.852  0.0603  0.3260  0.9435
 
              Baa    -0.3016  -160.931   -57.424   -53.681  0.8116 -0.5577 -0.1740
    29 H(1)   Bbb     0.1424    75.968    27.107    25.340  0.5395  0.6012  0.5895
              Bcc     0.1592    84.963    30.317    28.341 -0.2241 -0.5723  0.7888
 
              Baa    -0.3039  -162.144   -57.857   -54.085 -0.1934  0.0051  0.9811
    30 H(1)   Bbb     0.1472    78.548    28.028    26.201  0.9697  0.1529  0.1904
              Bcc     0.1567    83.596    29.829    27.885 -0.1490  0.9882 -0.0346
 
              Baa    -0.3057  -163.092   -58.195   -54.402  0.1735  0.9382 -0.2995
    31 H(1)   Bbb     0.1479    78.905    28.155    26.320  0.8991 -0.0268  0.4369
              Bcc     0.1578    84.188    30.040    28.082 -0.4018  0.3451  0.8482
 

 ---------------------------------------------------------------------------------

 No NMR shielding tensors so no spin-rotation constants.
 Leave Link  601 at Wed Jul  5 15:35:41 2023, MaxMem= 2147483648 cpu:       2.2
 Merz-Kollman atomic radii used.
 Atom Element Radius
    1     7    1.50
    2     6    1.50
    3     8    1.40
    4     6    1.50
    5     7    1.50
    6     6    1.50
    7     7    1.50
    8     6    1.50
    9     7    1.50
   10     6    1.50
   11     6    1.50
   12     6    1.50
   13     6    1.50
   14     6    1.50
   15     6    1.50
   16     6    1.50
   17     6    1.50
   18     6    1.50
   19     6    1.50
   20     1    1.20
   21     1    1.20
   22     1    1.20
   23     1    1.20
   24     1    1.20
   25     1    1.20
   26     1    1.20
   27     1    1.20
   28     1    1.20
   29     1    1.20
   30     1    1.20
   31     1    1.20
 Generate VDW surfaces: Layer= 4 Dens= 6 Start= 1.400 Inc= 0.200

 **********************************************************************

            Electrostatic Properties Using The SCF Density

 **********************************************************************

       Atomic Center    1 is at  -0.622105 -0.105299 -0.001965
       Atomic Center    2 is at  -1.779945  0.431828 -0.023174
       Atomic Center    3 is at  -4.776808 -1.402803  0.590327
       Atomic Center    4 is at   0.428312  0.665781 -0.191852
       Atomic Center    5 is at  -2.033090  1.724023 -0.207184
       Atomic Center    6 is at   0.232463  2.006993 -0.408978
       Atomic Center    7 is at  -0.618644 -1.449940  0.216519
       Atomic Center    8 is at  -1.033743  2.547889 -0.416448
       Atomic Center    9 is at  -4.619260  0.601552 -0.126234
       Atomic Center   10 is at  -1.875427 -1.828122  0.353133
       Atomic Center   11 is at  -2.646599 -0.712365  0.215117
       Atomic Center   12 is at   1.787648  0.100175 -0.202417
       Atomic Center   13 is at   2.839980  0.643163  0.491055
       Atomic Center   14 is at   4.079393  0.050643  0.414984
       Atomic Center   15 is at   4.277834 -1.060380 -0.341696
       Atomic Center   16 is at   2.019943 -1.008172 -0.972086
       Atomic Center   17 is at   3.247846 -1.602570 -1.035430
       Atomic Center   18 is at  -4.093967 -0.512716  0.252893
       Atomic Center   19 is at   5.238375  0.610378  1.156061
       Atomic Center   20 is at   1.084792  2.647815 -0.576439
       Atomic Center   21 is at  -1.196845  3.601181 -0.587059
       Atomic Center   22 is at  -2.227319 -2.831818  0.539217
       Atomic Center   23 is at   2.696807  1.528987  1.092336
       Atomic Center   24 is at   5.258086 -1.512204 -0.389992
       Atomic Center   25 is at   1.206881 -1.425224 -1.547363
       Atomic Center   26 is at   3.395610 -2.492067 -1.630430
       Atomic Center   27 is at  -5.623272  0.710234 -0.133567
       Atomic Center   28 is at  -4.026627  1.366293 -0.416426
       Atomic Center   29 is at   6.121111 -0.000094  0.964275
       Atomic Center   30 is at   5.020849  0.610272  2.224573
       Atomic Center   31 is at   5.423417  1.631550  0.823334
      ESP Fit Center   32 is at  -0.622105 -0.105299  2.098035
      ESP Fit Center   33 is at  -0.212416 -0.105299  2.057684
      ESP Fit Center   34 is at  -0.417260  0.249502  2.057684
      ESP Fit Center   35 is at  -0.826950  0.249502  2.057684
      ESP Fit Center   36 is at  -1.031795 -0.105299  2.057684
      ESP Fit Center   37 is at  -0.826950 -0.460101  2.057684
      ESP Fit Center   38 is at  -0.417260 -0.460101  2.057684
      ESP Fit Center   39 is at   0.181530 -0.105299  1.938182
      ESP Fit Center   40 is at   0.073863  0.296518  1.938182
      ESP Fit Center   41 is at  -0.220288  0.590669  1.938182
      ESP Fit Center   42 is at  -0.622105  0.698336  1.938182
      ESP Fit Center   43 is at  -1.023923  0.590669  1.938182
[...]
 7907 Fit       0.013789
 7908 Fit       0.015010
 7909 Fit       0.007644
 7910 Fit       0.009294
 7911 Fit       0.010655
 7912 Fit       0.011798
 7913 Fit       0.012768
 7914 Fit       0.013602
 7915 Fit       0.014336
 7916 Fit       0.015331
 7917 Fit       0.007864
 7918 Fit       0.009389
 7919 Fit       0.010643
 7920 Fit       0.011704
 7921 Fit       0.012613
 7922 Fit       0.013395
 7923 Fit       0.014080
 7924 Fit       0.014705
 7925 Fit       0.015444
 7926 Fit       0.016141
 7927 Fit       0.009913
 7928 Fit       0.010915
 7929 Fit       0.011792
 7930 Fit       0.012568
 7931 Fit       0.013253
 7932 Fit       0.013857
 7933 Fit       0.014396
 7934 Fit       0.014904
 7935 Fit       0.015320
 7936 Fit       0.015878
 7937 Fit       0.011482
 7938 Fit       0.012045
 7939 Fit       0.012606
 7940 Fit       0.013145
 7941 Fit       0.013644
 7942 Fit       0.014095
 7943 Fit       0.014505
 7944 Fit       0.014896
 7945 Fit       0.014965
 7946 Fit       0.015342
 7947 Fit       0.015928
 7948 Fit       0.012839
 7949 Fit       0.012907
 7950 Fit       0.013143
 7951 Fit       0.013457
 7952 Fit       0.013790
 7953 Fit       0.014109
 7954 Fit       0.014401
 7955 Fit       0.014674
 7956 Fit       0.014401
 7957 Fit       0.014558
 7958 Fit       0.014789
 7959 Fit       0.013904
 7960 Fit       0.013659
 7961 Fit       0.013673
 7962 Fit       0.013803
 7963 Fit       0.013970
 7964 Fit       0.014130
 7965 Fit       0.014270
 7966 Fit       0.013656
 7967 Fit       0.013565
 7968 Fit       0.013423
 7969 Fit       0.013167
 7970 Fit       0.014255
 7971 Fit       0.013868
 7972 Fit       0.013738
 7973 Fit       0.013717
 7974 Fit       0.013722
 7975 Fit       0.013707
 7976 Fit       0.012755
 7977 Fit       0.012387
 7978 Fit       0.011838
 7979 Fit       0.014245
 7980 Fit       0.013674
 7981 Fit       0.013387
 7982 Fit       0.013201
 7983 Fit       0.013011
 7984 Fit       0.011718
 7985 Fit       0.011042
 7986 Fit       0.013674
 7987 Fit       0.013023
 7988 Fit       0.012596
 7989 Fit       0.012203
 7990 Fit       0.010556
 7991 Fit       0.012673
 7992 Fit       0.011945
 7993 Fit       0.011312
 7994 Fit      -0.007295
 7995 Fit      -0.004333
 7996 Fit      -0.005434
 7997 Fit      -0.002797
 7998 Fit      -0.000105
 7999 Fit      -0.005246
 8000 Fit      -0.002889
 8001 Fit      -0.000544
 8002 Fit       0.001934
 8003 Fit       0.004792
 8004 Fit      -0.003373
 8005 Fit      -0.001419
 8006 Fit       0.000609
 8007 Fit       0.002772
 8008 Fit       0.005225
 8009 Fit      -0.002438
 8010 Fit      -0.001424
 8011 Fit      -0.000028
 8012 Fit       0.001582
 8013 Fit       0.003357
 8014 Fit       0.005348
 8015 Fit       0.007689
 8016 Fit       0.006449
 8017 Fit       0.004321
 8018 Fit       0.002308
 8019 Fit       0.000941
 8020 Fit       0.000459
 8021 Fit       0.000786
 8022 Fit       0.001689
 8023 Fit       0.002955
 8024 Fit       0.004465
 8025 Fit       0.006196
 8026 Fit       0.008185
 8027 Fit       0.006444
 8028 Fit       0.005236
 8029 Fit       0.003934
 8030 Fit       0.003032
 8031 Fit       0.002783
 8032 Fit       0.003172
 8033 Fit       0.004040
 8034 Fit       0.005227
 8035 Fit       0.006628
 8036 Fit       0.008156
 8037 Fit       0.009619
 8038 Fit       0.006020
 8039 Fit       0.005362
 8040 Fit       0.004669
 8041 Fit       0.004384
 8042 Fit       0.004661
 8043 Fit       0.005410
 8044 Fit       0.006445
 8045 Fit       0.007545
 8046 Fit       0.008366
 8047 Fit       0.005721
 8048 Fit       0.005730
 8049 Fit       0.005441
 8050 Fit       0.005458
 8051 Fit       0.005986
 8052 Fit       0.006767
 8053 Fit       0.007250
 8054 Fit       0.005668
 8055 Fit       0.005830
 8056 Fit       0.006151
 8057 Fit       0.006441
 8058 Fit       0.005916
 8059 Fit       0.000898
 8060 Fit       0.002677
 8061 Fit       0.004282
 8062 Fit       0.005804
 8063 Fit       0.007353
 8064 Fit       0.000405
 8065 Fit       0.002165
 8066 Fit       0.003740
 8067 Fit       0.005175
 8068 Fit       0.006520
 8069 Fit       0.007842
 8070 Fit       0.009233
 8071 Fit       0.010840
 8072 Fit       0.002078
 8073 Fit       0.003464
 8074 Fit       0.004775
 8075 Fit       0.006005
 8076 Fit       0.007163
 8077 Fit       0.008278
 8078 Fit       0.009395
 8079 Fit       0.010587
 8080 Fit       0.011963
 8081 Fit       0.013693
 8082 Fit       0.003506
 8083 Fit       0.004456
 8084 Fit       0.005488
 8085 Fit       0.006523
 8086 Fit       0.007525
 8087 Fit       0.008486
 8088 Fit       0.009417
 8089 Fit       0.010346
 8090 Fit       0.011321
 8091 Fit       0.012409
 8092 Fit       0.013703
 8093 Fit       0.005352
 8094 Fit       0.005853
 8095 Fit       0.006599
 8096 Fit       0.007439
 8097 Fit       0.008295
 8098 Fit       0.009130
 8099 Fit       0.009934
 8100 Fit       0.010714
 8101 Fit       0.011495
 8102 Fit       0.012311
 8103 Fit       0.013199
 8104 Fit       0.014181
 8105 Fit       0.007210
 8106 Fit       0.007045
 8107 Fit       0.007399
 8108 Fit       0.008002
 8109 Fit       0.008706
 8110 Fit       0.009428
 8111 Fit       0.010128
 8112 Fit       0.010789
 8113 Fit       0.011412
 8114 Fit       0.012005
 8115 Fit       0.012571
 8116 Fit       0.013086
 8117 Fit       0.013457
 8118 Fit       0.011601
 8119 Fit       0.008314
 8120 Fit       0.008211
 8121 Fit       0.008514
 8122 Fit       0.009020
 8123 Fit       0.009603
 8124 Fit       0.010190
 8125 Fit       0.010738
 8126 Fit       0.011226
 8127 Fit       0.011639
 8128 Fit       0.011958
 8129 Fit       0.012138
 8130 Fit       0.012080
 8131 Fit       0.010268
 8132 Fit       0.009224
 8133 Fit       0.008904
 8134 Fit       0.009029
 8135 Fit       0.009407
 8136 Fit       0.009891
 8137 Fit       0.010380
 8138 Fit       0.010811
 8139 Fit       0.011140
 8140 Fit       0.011330
 8141 Fit       0.011321
 8142 Fit       0.011019
 8143 Fit       0.009294
 8144 Fit       0.009463
 8145 Fit       0.009219
 8146 Fit       0.009269
 8147 Fit       0.009550
 8148 Fit       0.009938
 8149 Fit       0.010319
 8150 Fit       0.010607
 8151 Fit       0.010731
 8152 Fit       0.010622
 8153 Fit       0.010184
 8154 Fit       0.008578
 8155 Fit       0.008930
 8156 Fit       0.009100
 8157 Fit       0.009334
 8158 Fit       0.009654
 8159 Fit       0.009954
 8160 Fit       0.010110
 8161 Fit       0.010008
 8162 Fit       0.009534
 8163 Fit       0.008061
 8164 Fit       0.007829
 8165 Fit       0.008574
 8166 Fit       0.009017
 8167 Fit       0.009336
 8168 Fit       0.009410
 8169 Fit       0.009036
 8170 Fit       0.007712
 8171 Fit       0.007547
 8172 Fit       0.008410
 8173 Fit       0.008550
 8174 Fit       0.007531
 8175 Fit      -0.004601
 8176 Fit      -0.007413
 8177 Fit      -0.012065
 8178 Fit       0.000024
 8179 Fit      -0.000993
 8180 Fit      -0.003179
 8181 Fit      -0.006740
 8182 Fit      -0.011961
 8183 Fit      -0.019203
 8184 Fit       0.003104
 8185 Fit       0.002617
 8186 Fit       0.001313
 8187 Fit      -0.000953
 8188 Fit      -0.004389
 8189 Fit      -0.009300
 8190 Fit      -0.016139
 8191 Fit       0.005549
 8192 Fit       0.005306
 8193 Fit       0.004513
 8194 Fit       0.003065
 8195 Fit       0.000824
 8196 Fit      -0.002397
 8197 Fit      -0.006866
 8198 Fit      -0.012994
 8199 Fit      -0.021438
 8200 Fit       0.007478
 8201 Fit       0.007376
 8202 Fit       0.006914
 8203 Fit       0.005983
 8204 Fit       0.004468
 8205 Fit       0.002230
 8206 Fit      -0.000911
 8207 Fit      -0.005214
 8208 Fit      -0.011076
 8209 Fit      -0.019143
 8210 Fit       0.008856
 8211 Fit       0.008529
 8212 Fit       0.007912
 8213 Fit       0.006891
 8214 Fit       0.005354
 8215 Fit       0.003171
 8216 Fit       0.000181
 8217 Fit      -0.003843
 8218 Fit      -0.009239
 8219 Fit      -0.016552
 8220 Fit       0.009751
 8221 Fit       0.009365
 8222 Fit       0.008801
 8223 Fit       0.007931
 8224 Fit       0.006646
 8225 Fit       0.004831
 8226 Fit       0.002354
 8227 Fit      -0.000953
 8228 Fit      -0.005329
 8229 Fit      -0.011133
 8230 Fit      -0.018938
 8231 Fit       0.009776
 8232 Fit       0.009251
 8233 Fit       0.008519
 8234 Fit       0.007447
 8235 Fit       0.005915
 8236 Fit       0.003798
 8237 Fit       0.000950
 8238 Fit      -0.002820
 8239 Fit      -0.007783
 8240 Fit      -0.014346
 8241 Fit       0.009433
 8242 Fit       0.008879
 8243 Fit       0.008154
 8244 Fit       0.007100
 8245 Fit       0.005584
 8246 Fit       0.003472
 8247 Fit       0.000619
 8248 Fit      -0.003161
 8249 Fit      -0.008114
 8250 Fit      -0.014593
 8251 Fit       0.007871
 8252 Fit       0.007197
 8253 Fit       0.006196
 8254 Fit       0.004729
 8255 Fit       0.002664
 8256 Fit      -0.000135
 8257 Fit      -0.003828
 8258 Fit      -0.008608
 8259 Fit      -0.014709
 8260 Fit       0.005760
 8261 Fit       0.004893
 8262 Fit       0.003503
 8263 Fit       0.001444
 8264 Fit      -0.001428
 8265 Fit      -0.005255
 8266 Fit      -0.010175
 8267 Fit       0.001700
 8268 Fit      -0.000283
 8269 Fit      -0.003168
 8270 Fit      -0.007048
 8271 Fit      -0.001312
 8272 Fit       0.000639
 8273 Fit       0.002639
 8274 Fit       0.003964
 8275 Fit       0.003124
 8276 Fit       0.005027
 8277 Fit       0.006241
 8278 Fit       0.005255
 8279 Fit       0.006835
 8280 Fit       0.007924
 8281 Fit       0.005338
 8282 Fit       0.007095
 8283 Fit       0.008295
 8284 Fit       0.005939
 8285 Fit       0.007549
 8286 Fit       0.008632
 8287 Fit       0.006414
 8288 Fit       0.007695
 8289 Fit       0.008502
 8290 Fit       0.004564
 8291 Fit       0.006146
 8292 Fit       0.007012
 8293 Fit       0.003200
 8294 Fit       0.004711
 8295 Fit       0.005309
 8296 Fit       0.001459
 8297 Fit       0.002741
 8298 Fit      -0.000227
 8299 Fit       0.011092
 8300 Fit       0.010993
 8301 Fit       0.010939
 8302 Fit       0.011244
 8303 Fit       0.011405
 8304 Fit       0.011274
 8305 Fit       0.011175
 8306 Fit       0.011115
 8307 Fit       0.011129
 8308 Fit       0.012183
 8309 Fit       0.011821
 8310 Fit       0.011578
 8311 Fit       0.011775
 8312 Fit       0.011608
 8313 Fit       0.011466
 8314 Fit       0.011350
 8315 Fit       0.011279
 8316 Fit       0.011295
 8317 Fit       0.013316
 8318 Fit       0.012684
 8319 Fit       0.012267
 8320 Fit       0.011983
 8321 Fit       0.012142
 8322 Fit       0.011935
 8323 Fit       0.011753
 8324 Fit       0.011591
 8325 Fit       0.011460
 8326 Fit       0.011390
 8327 Fit       0.011429
 8328 Fit       0.015224
 8329 Fit       0.014010
 8330 Fit       0.013239
 8331 Fit       0.012737
 8332 Fit       0.012395
 8333 Fit       0.012456
 8334 Fit       0.012203
 8335 Fit       0.011978
 8336 Fit       0.011772
 8337 Fit       0.011593
 8338 Fit       0.011466
 8339 Fit       0.011433
 8340 Fit       0.011555
 8341 Fit       0.014843
 8342 Fit       0.013833
 8343 Fit       0.013195
 8344 Fit       0.012769
 8345 Fit       0.012679
 8346 Fit       0.012376
 8347 Fit       0.012108
 8348 Fit       0.011859
 8349 Fit       0.011637
 8350 Fit       0.011462
 8351 Fit       0.011374
 8352 Fit       0.011422
 8353 Fit       0.015679
 8354 Fit       0.014374
 8355 Fit       0.013576
 8356 Fit       0.013054
 8357 Fit       0.012773
 8358 Fit       0.012431
 8359 Fit       0.012127
 8360 Fit       0.011842
 8361 Fit       0.011579
 8362 Fit       0.011357
 8363 Fit       0.011204
 8364 Fit       0.011153
 8365 Fit       0.014691
 8366 Fit       0.013787
 8367 Fit       0.013197
 8368 Fit       0.012704
 8369 Fit       0.012316
 8370 Fit       0.011965
 8371 Fit       0.011629
 8372 Fit       0.011312
 8373 Fit       0.011028
 8374 Fit       0.010791
 8375 Fit       0.014881
 8376 Fit       0.013850
 8377 Fit       0.013182
 8378 Fit       0.012430
 8379 Fit       0.012015
 8380 Fit       0.011621
 8381 Fit       0.011225
 8382 Fit       0.010823
 8383 Fit       0.010409
 8384 Fit       0.009930
 8385 Fit       0.014460
 8386 Fit       0.013559
 8387 Fit       0.012917
 8388 Fit       0.011902
 8389 Fit       0.011468
 8390 Fit       0.011000
 8391 Fit       0.010474
 8392 Fit       0.009846
 8393 Fit       0.008993
 8394 Fit       0.012750
 8395 Fit       0.012331
 8396 Fit       0.011048
 8397 Fit       0.010575
 8398 Fit       0.009877
 8399 Fit       0.008860
 8400 Fit       0.011245
 8401 Fit       0.009774
 8402 Fit       0.009057
 8403 Fit       0.007336
 8404 Fit       0.007947
 8405 Fit       0.008699
 8406 Fit       0.009119
 8407 Fit       0.009101
 8408 Fit       0.008733
 8409 Fit       0.008194
 8410 Fit       0.008188
 8411 Fit       0.008740
 8412 Fit       0.009455
 8413 Fit       0.009487
 8414 Fit       0.009429
 8415 Fit       0.009269
 8416 Fit       0.008902
 8417 Fit       0.008281
 8418 Fit       0.007610
 8419 Fit       0.007292
 8420 Fit       0.007540
 8421 Fit       0.008167
 8422 Fit       0.008817
 8423 Fit       0.009257
 8424 Fit       0.009712
 8425 Fit       0.009728
 8426 Fit       0.009720
 8427 Fit       0.009722
 8428 Fit       0.009715
 8429 Fit       0.009614
 8430 Fit       0.009299
 8431 Fit       0.008690
 8432 Fit       0.007836
 8433 Fit       0.006956
 8434 Fit       0.006372
 8435 Fit       0.006301
 8436 Fit       0.006731
 8437 Fit       0.007462
 8438 Fit       0.008251
 8439 Fit       0.008912
 8440 Fit       0.009364
 8441 Fit       0.009613
 8442 Fit       0.009905
 8443 Fit       0.009900
 8444 Fit       0.009899
 8445 Fit       0.009940
 8446 Fit       0.010046
 8447 Fit       0.006836
 8448 Fit       0.005719
 8449 Fit       0.005056
 8450 Fit       0.004997
 8451 Fit       0.005485
 8452 Fit       0.006328
 8453 Fit       0.007296
 8454 Fit       0.008200
 8455 Fit       0.008923
 8456 Fit       0.009426
 8457 Fit       0.009724
 8458 Fit       0.009865
 8459 Fit       0.010059
 8460 Fit       0.010037
 8461 Fit       0.010038
 8462 Fit       0.010098
 8463 Fit       0.004667
 8464 Fit       0.003590
 8465 Fit       0.003264
 8466 Fit       0.003644
 8467 Fit       0.004539
 8468 Fit       0.005705
 8469 Fit       0.006910
 8470 Fit       0.007986
 8471 Fit       0.008836
 8472 Fit       0.009434
 8473 Fit       0.009803
 8474 Fit       0.009993
 8475 Fit       0.010060
 8476 Fit       0.010208
 8477 Fit       0.010178
 8478 Fit       0.010181
 8479 Fit       0.001093
 8480 Fit       0.001326
 8481 Fit       0.002242
 8482 Fit       0.003583
 8483 Fit       0.005092
 8484 Fit       0.006550
 8485 Fit       0.007807
 8486 Fit       0.008787
 8487 Fit       0.009477
 8488 Fit       0.009910
 8489 Fit       0.010142
 8490 Fit       0.010233
 8491 Fit       0.010239
 8492 Fit       0.010406
 8493 Fit       0.010375
 8494 Fit       0.001387
 8495 Fit       0.003383
 8496 Fit       0.005347
 8497 Fit       0.007067
 8498 Fit       0.008424
 8499 Fit       0.009390
 8500 Fit       0.010004
 8501 Fit       0.010338
 8502 Fit       0.010477
 8503 Fit       0.010495
 8504 Fit       0.010457
 8505 Fit       0.003740
 8506 Fit       0.006113
 8507 Fit       0.008010
 8508 Fit       0.009374
 8509 Fit       0.010240
 8510 Fit       0.010709
 8511 Fit       0.010899
 8512 Fit       0.010920
 8513 Fit       0.010862
 8514 Fit       0.010786
 8515 Fit       0.009172
 8516 Fit       0.010602
 8517 Fit       0.011373
 8518 Fit       0.011672
 8519 Fit       0.011688
 8520 Fit       0.011573
 8521 Fit       0.011046
 8522 Fit       0.011232
 8523 Fit       0.011696
 8524 Fit       0.011928
 8525 Fit       0.011684
 8526 Fit       0.011118
 8527 Fit       0.011621
 8528 Fit       0.012187
 8529 Fit       0.012698
 8530 Fit       0.013035
 8531 Fit       0.013053
 8532 Fit       0.012588
 8533 Fit       0.011511
 8534 Fit       0.012092
 8535 Fit       0.012734
 8536 Fit       0.013378
 8537 Fit       0.013964
 8538 Fit       0.014418
 8539 Fit       0.014624
 8540 Fit       0.014394
 8541 Fit       0.013505
 8542 Fit       0.011445
 8543 Fit       0.011994
 8544 Fit       0.012652
 8545 Fit       0.013375
 8546 Fit       0.014129
 8547 Fit       0.014887
 8548 Fit       0.015621
 8549 Fit       0.016277
 8550 Fit       0.016730
 8551 Fit       0.011384
 8552 Fit       0.011857
 8553 Fit       0.012464
 8554 Fit       0.013171
 8555 Fit       0.013951
 8556 Fit       0.014791
 8557 Fit       0.015687
 8558 Fit       0.016645
 8559 Fit       0.017671
 8560 Fit       0.018751
 8561 Fit       0.011841
 8562 Fit       0.012427
 8563 Fit       0.013140
 8564 Fit       0.013956
 8565 Fit       0.014863
 8566 Fit       0.015869
 8567 Fit       0.016997
 8568 Fit       0.018293
 8569 Fit       0.019830
 8570 Fit       0.011810
 8571 Fit       0.012333
 8572 Fit       0.013010
 8573 Fit       0.013815
 8574 Fit       0.014734
 8575 Fit       0.015776
 8576 Fit       0.016971
 8577 Fit       0.018374
 8578 Fit       0.020085
 8579 Fit       0.011832
 8580 Fit       0.012287
 8581 Fit       0.012931
 8582 Fit       0.013729
 8583 Fit       0.014665
 8584 Fit       0.015748
 8585 Fit       0.017013
 8586 Fit       0.018524
 8587 Fit       0.020395
 8588 Fit       0.012356
 8589 Fit       0.013026
 8590 Fit       0.013885
 8591 Fit       0.014918
 8592 Fit       0.016144
 8593 Fit       0.017617
 8594 Fit       0.019434
 8595 Fit       0.021762
 8596 Fit       0.012460
 8597 Fit       0.013197
 8598 Fit       0.014161
 8599 Fit       0.015347
 8600 Fit       0.016793
 8601 Fit       0.018581
 8602 Fit       0.020853
 8603 Fit       0.012507
 8604 Fit       0.013300
 8605 Fit       0.014352
 8606 Fit       0.015663
 8607 Fit       0.017279
 8608 Fit       0.019283
 8609 Fit       0.012730
 8610 Fit       0.013725
 8611 Fit       0.015010
 8612 Fit       0.016584
 8613 Fit       0.018434
 8614 Fit       0.014000
 8615 Fit       0.015264
 -----------------------------------------------------------------
 Leave Link  602 at Wed Jul  5 15:51:23 2023, MaxMem= 2147483648 cpu:       3.8

 Test job not archived.
 1\1\GINC-NODE469\FOpt\RHF\6-31G(d)\C14H12N4O1\TALAGAYEV\05-Jul-2023\0\
 \#HF/6-31G* SCF=tight Test Pop=MK iop(6/33=2) iop(6/42=6) fopt\\remark
  line goes here\\0,1\N,60.6777981126,-30.0821168189,35.3839439445\C,61
 .5634857797,-30.6728917172,36.2493426092\O,60.4970165654,-31.698101289
 4,39.5840914387\C,61.0320733803,-29.7080040589,34.1250581005\N,62.8458
 256028,-30.9086877838,35.904893369\C,62.3254805999,-29.9489244845,33.7
 739918538\N,59.4450770745,-29.9627809209,35.9261148698\C,63.194713076,
 -30.5576528315,34.7120667254\N,62.5661349882,-31.9434086033,38.7514994
 578\C,59.5622360023,-30.4660435853,37.1206171305\C,60.8566965982,-30.9
 340243014,37.4061240245\C,60.0497464147,-29.0704556388,33.2137294936\C
 ,60.0062434104,-29.4845837955,31.8847768682\C,59.1528589344,-28.887257
 3174,30.9697013608\C,58.3455942462,-27.8441532916,31.4096695034\C,59.2
 24971958,-28.0362680333,33.6376042417\C,58.3827290493,-27.4230458716,3
 2.727157222\C,61.2758475261,-31.5552066154,38.6763206986\C,59.08317269
 73,-29.3669772472,29.5382271747\H,62.6890108742,-29.6539149922,32.8109
 867865\H,64.2181338659,-30.7419280224,34.4345780331\H,58.7172626162,-3
 0.4950781227,37.7765838437\H,60.6328899853,-30.2981097092,31.566117595
 \H,57.6790891617,-27.3603852871,30.716640829\H,59.238360658,-27.716868
 1737,34.6602523409\H,57.7504552707,-26.6157225591,33.0494642304\H,62.8
 745174054,-32.3712645779,39.5941329402\H,63.1985919956,-31.8280718665,
 37.9924591348\H,59.0891784062,-28.5327465068,28.844695394\H,58.1728515
 136,-29.9325727266,29.3619662088\H,59.921956231,-30.0087532498,29.2951
 925763\\Version=EM64L-G09RevA.02\State=1-A\HF=-829.8115272\RMSD=8.892e
 -09\RMSF=5.279e-06\Dipole=0.9946331,0.7473768,-2.7126227\Quadrupole=7.
 6663336,0.1228857,-7.7892193,-6.9591738,5.9965494,3.4196881\PG=C01 [X(
 C14H12N4O1)]\\@


 KINETICS       FACT
 ---------  =  -------
 MECHANISM     FICTION
 Job cpu time:  0 days  3 hours 10 minutes 30.7 seconds.
 File lengths (MBytes):  RWF=     82 Int=      0 D2E=      0 Chk=      7 Scr=      1
 Normal termination of Gaussian 09 at Wed Jul  5 15:51:24 2023.
