 Entering Gaussian System, Link 0=g09
 Initial command:
 /afs/math/software/gaussian/g09/@sys/l1.exe /net/beegfs/talagayev/fkbp/pdb-lig/DY3/Gau-2209.inp -scrdir=/net/beegfs/talagayev/fkbp/pdb-lig/DY3/
 Entering Link 1 = /afs/math/software/gaussian/g09/@sys/l1.exe PID=      2210.
  
 Copyright (c) 1988,1990,1992,1993,1995,1998,2003,2009, Gaussian, Inc.
                  All Rights Reserved.
  
 This is part of the Gaussian(R) 09 program.  It is based on
 the Gaussian(R) 03 system (copyright 2003, Gaussian, Inc.),
 the Gaussian(R) 98 system (copyright 1998, Gaussian, Inc.),
 the Gaussian(R) 94 system (copyright 1995, Gaussian, Inc.),
 the Gaussian 92(TM) system (copyright 1992, Gaussian, Inc.),
 the Gaussian 90(TM) system (copyright 1990, Gaussian, Inc.),
 the Gaussian 88(TM) system (copyright 1988, Gaussian, Inc.),
 the Gaussian 86(TM) system (copyright 1986, Carnegie Mellon
 University), and the Gaussian 82(TM) system (copyright 1983,
 Carnegie Mellon University). Gaussian is a federally registered
 trademark of Gaussian, Inc.
  
 This software contains proprietary and confidential information,
 including trade secrets, belonging to Gaussian, Inc.
  
 This software is provided under written license and may be
 used, copied, transmitted, or stored only in accord with that
 written license.
  
 The following legend is applicable only to US Government
 contracts under FAR:
  
                    RESTRICTED RIGHTS LEGEND
  
 Use, reproduction and disclosure by the US Government is
 subject to restrictions as set forth in subparagraphs (a)
 and (c) of the Commercial Computer Software - Restricted
 Rights clause in FAR 52.227-19.
  
 Gaussian, Inc.
 340 Quinnipiac St., Bldg. 40, Wallingford CT 06492
  
  
 ---------------------------------------------------------------
 Warning -- This program may not be used in any manner that
 competes with the business of Gaussian, Inc. or will provide
 assistance to any competitor of Gaussian, Inc.  The licensee
 of this program is prohibited from giving any competitor of
 Gaussian, Inc. access to this program.  By using this program,
 the user acknowledges that Gaussian, Inc. is engaged in the
 business of creating and licensing software in the field of
 computational chemistry and represents and warrants to the
 licensee that it is not a competitor of Gaussian, Inc. and that
 it will not use this program in any manner prohibited above.
 ---------------------------------------------------------------
  

 Cite this work as:
 Gaussian 09, Revision A.02,
 M. J. Frisch, G. W. Trucks, H. B. Schlegel, G. E. Scuseria, 
 M. A. Robb, J. R. Cheeseman, G. Scalmani, V. Barone, B. Mennucci, 
 G. A. Petersson, H. Nakatsuji, M. Caricato, X. Li, H. P. Hratchian, 
 A. F. Izmaylov, J. Bloino, G. Zheng, J. L. Sonnenberg, M. Hada, 
 M. Ehara, K. Toyota, R. Fukuda, J. Hasegawa, M. Ishida, T. Nakajima, 
 Y. Honda, O. Kitao, H. Nakai, T. Vreven, J. A. Montgomery, Jr., 
 J. E. Peralta, F. Ogliaro, M. Bearpark, J. J. Heyd, E. Brothers, 
 K. N. Kudin, V. N. Staroverov, R. Kobayashi, J. Normand, 
 K. Raghavachari, A. Rendell, J. C. Burant, S. S. Iyengar, J. Tomasi, 
 M. Cossi, N. Rega, J. M. Millam, M. Klene, J. E. Knox, J. B. Cross, 
 V. Bakken, C. Adamo, J. Jaramillo, R. Gomperts, R. E. Stratmann, 
 O. Yazyev, A. J. Austin, R. Cammi, C. Pomelli, J. W. Ochterski, 
 R. L. Martin, K. Morokuma, V. G. Zakrzewski, G. A. Voth, 
 P. Salvador, J. J. Dannenberg, S. Dapprich, A. D. Daniels, 
 O. Farkas, J. B. Foresman, J. V. Ortiz, J. Cioslowski, 
 and D. J. Fox, Gaussian, Inc., Wallingford CT, 2009.
 
 ******************************************
 Gaussian 09:  EM64L-G09RevA.02 11-Jun-2009
                 5-Jul-2023 
 ******************************************
 %nprocs=12
 Will use up to   12 processors via shared memory.
 %mem=16GB
 -------------------------------------------------------------
 #HF/6-31G* SCF=tight Test Pop=MK iop(6/33=2) iop(6/42=6) fopt
 -------------------------------------------------------------
 1/18=20,19=15,38=1/1,3;
 2/9=110,12=2,14=103,17=6,18=5,40=1/2;
 3/5=1,6=6,7=1,11=9,16=1,25=1,30=1,71=1/1,2,3;
 4//1;
 5/5=2,32=2,38=5/2;
 6/7=2,8=2,9=2,10=2,15=8,20=1,28=1,33=2,42=6/1,2;
 7//1,2,3,16;
 1/18=20,19=15/3(2);
 2/9=110/2;
 99//99;
 2/9=110/2;
 3/5=1,6=6,7=1,11=9,16=1,25=1,30=1,71=1/1,2,3;
 4/5=5,16=3/1;
 5/5=2,32=2,38=5/2;
 7//1,2,3,16;
 1/18=20,19=15/3(-5);
 2/9=110/2;
 6/7=2,8=2,9=2,10=2,15=8,19=2,20=1,28=1,33=2,42=6/1,2;
 99/9=1/99;
 ---------------------
 remark line goes here
 ---------------------
 Symbolic Z-matrix:
 Charge =  0 Multiplicity = 1
 N                    -65.268    0.115    -26.923 
 C                    -64.245   -0.16     -27.754 
 O                    -61.537    3.507    -27.9 
 C                    -66.07    -0.929    -28.602 
 N                    -64.781   -0.818    -28.757 
 C                    -62.984   -2.151    -29.556 
 N                    -66.457   -0.395    -27.451 
 C                    -62.091   -2.547    -30.547 
 C                    -63.997   -1.193    -29.754 
 C                    -62.162   -1.945    -31.869 
 C                    -64.064   -0.585    -31.008 
 C                    -63.209   -0.932    -32.051 
 C                    -66.714   -1.732    -31.242 
 C                    -62.791    0.196    -27.539 
 C                    -62.716    1.579    -26.92 
 C                    -62.693    2.65     -28.007 
 C                    -61.241   -2.337    -32.988 
 C                    -63.367   -0.266    -33.382 
 C                    -61.057   -3.588    -30.285 
 S                    -67.254   -1.68     -29.604 
 H                    -61.587    4.152    -28.609 
 H                    -62.895   -2.604    -28.58 
 H                    -64.805    0.182    -31.176 
 H                    -67.474   -2.209    -31.86 
 H                    -65.787   -2.302    -31.301 
 H                    -66.54    -0.717    -31.6 
 H                    -62.267    0.193    -28.495 
 H                    -62.33    -0.531    -26.87 
 H                    -63.586    1.734    -26.282 
 H                    -61.808    1.656    -26.322 
 H                    -62.68     2.162    -28.981 
 H                    -63.592    3.26     -27.919 
 H                    -61.482   -1.755    -33.877 
 H                    -61.363   -3.398    -33.204 
 H                    -60.209   -2.143    -32.695 
 H                    -62.62    -0.655    -34.074 
 H                    -63.231    0.81     -33.269 
 H                    -64.364   -0.467    -33.773 
 H                    -61.141   -3.932    -29.254 
 H                    -60.066   -3.165    -30.448 
 H                    -61.208   -4.429    -30.962 
 

 GradGradGradGradGradGradGradGradGradGradGradGradGradGradGradGradGradGrad
 Berny optimization.
 Initialization pass.
                           ----------------------------
                           !    Initial Parameters    !
                           ! (Angstroms and Degrees)  !
 --------------------------                            --------------------------
 ! Name  Definition              Value          Derivative Info.                !
 --------------------------------------------------------------------------------
 ! R1    R(1,2)                  1.3464         estimate D2E/DX2                !
 ! R2    R(1,7)                  1.3974         estimate D2E/DX2                !
 ! R3    R(2,5)                  1.3139         estimate D2E/DX2                !
 ! R4    R(2,14)                 1.5123         estimate D2E/DX2                !
 ! R5    R(3,16)                 1.443          estimate D2E/DX2                !
 ! R6    R(3,21)                 0.9598         estimate D2E/DX2                !
 ! R7    R(4,5)                  1.303          estimate D2E/DX2                !
 ! R8    R(4,7)                  1.3265         estimate D2E/DX2                !
 ! R9    R(4,20)                 1.7233         estimate D2E/DX2                !
 ! R10   R(5,9)                  1.3226         estimate D2E/DX2                !
 ! R11   R(6,8)                  1.3915         estimate D2E/DX2                !
 ! R12   R(6,9)                  1.4082         estimate D2E/DX2                !
 ! R13   R(6,22)                 1.0797         estimate D2E/DX2                !
 ! R14   R(8,10)                 1.4543         estimate D2E/DX2                !
 ! R15   R(8,19)                 1.4905         estimate D2E/DX2                !
 ! R16   R(9,11)                 1.3952         estimate D2E/DX2                !
 ! R17   R(10,12)                1.4682         estimate D2E/DX2                !
 ! R18   R(10,17)                1.5014         estimate D2E/DX2                !
 ! R19   R(11,12)                1.3926         estimate D2E/DX2                !
 ! R20   R(11,23)                1.0796         estimate D2E/DX2                !
 ! R21   R(12,18)                1.4967         estimate D2E/DX2                !
 ! R22   R(13,20)                1.7255         estimate D2E/DX2                !
 ! R23   R(13,24)                1.0895         estimate D2E/DX2                !
 ! R24   R(13,25)                1.0898         estimate D2E/DX2                !
 ! R25   R(13,26)                1.0903         estimate D2E/DX2                !
 ! R26   R(14,15)                1.5171         estimate D2E/DX2                !
 ! R27   R(14,27)                1.0902         estimate D2E/DX2                !
 ! R28   R(14,28)                1.0902         estimate D2E/DX2                !
 ! R29   R(15,16)                1.5262         estimate D2E/DX2                !
 ! R30   R(15,29)                1.0899         estimate D2E/DX2                !
 ! R31   R(15,30)                1.09           estimate D2E/DX2                !
 ! R32   R(16,31)                1.0895         estimate D2E/DX2                !
 ! R33   R(16,32)                1.09           estimate D2E/DX2                !
 ! R34   R(17,33)                1.0896         estimate D2E/DX2                !
 ! R35   R(17,34)                1.0896         estimate D2E/DX2                !
 ! R36   R(17,35)                1.0902         estimate D2E/DX2                !
 ! R37   R(18,36)                1.09           estimate D2E/DX2                !
 ! R38   R(18,37)                1.0904         estimate D2E/DX2                !
 ! R39   R(18,38)                1.0896         estimate D2E/DX2                !
 ! R40   R(19,39)                1.0901         estimate D2E/DX2                !
 ! R41   R(19,40)                1.0898         estimate D2E/DX2                !
 ! R42   R(19,41)                1.0901         estimate D2E/DX2                !
 ! A1    A(2,1,7)              109.8013         estimate D2E/DX2                !
 ! A2    A(1,2,5)              105.2776         estimate D2E/DX2                !
 ! A3    A(1,2,14)             126.4909         estimate D2E/DX2                !
 ! A4    A(5,2,14)             128.2172         estimate D2E/DX2                !
 ! A5    A(16,3,21)            107.6142         estimate D2E/DX2                !
 ! A6    A(5,4,7)              110.9477         estimate D2E/DX2                !
 ! A7    A(5,4,20)             130.3615         estimate D2E/DX2                !
 ! A8    A(7,4,20)             118.6515         estimate D2E/DX2                !
 ! A9    A(2,5,4)              110.819          estimate D2E/DX2                !
 ! A10   A(2,5,9)              118.4002         estimate D2E/DX2                !
 ! A11   A(4,5,9)              130.6855         estimate D2E/DX2                !
 ! A12   A(8,6,9)              123.717          estimate D2E/DX2                !
 ! A13   A(8,6,22)             118.1304         estimate D2E/DX2                !
 ! A14   A(9,6,22)             118.1526         estimate D2E/DX2                !
 ! A15   A(1,7,4)              103.0934         estimate D2E/DX2                !
 ! A16   A(6,8,10)             119.8832         estimate D2E/DX2                !
 ! A17   A(6,8,19)             121.2503         estimate D2E/DX2                !
 ! A18   A(10,8,19)            118.8659         estimate D2E/DX2                !
 ! A19   A(5,9,6)              120.8836         estimate D2E/DX2                !
 ! A20   A(5,9,11)             121.7013         estimate D2E/DX2                !
 ! A21   A(6,9,11)             117.2168         estimate D2E/DX2                !
 ! A22   A(8,10,12)            115.6646         estimate D2E/DX2                !
 ! A23   A(8,10,17)            122.648          estimate D2E/DX2                !
 ! A24   A(12,10,17)           121.6836         estimate D2E/DX2                !
 ! A25   A(9,11,12)            122.3499         estimate D2E/DX2                !
 ! A26   A(9,11,23)            118.8424         estimate D2E/DX2                !
 ! A27   A(12,11,23)           118.8078         estimate D2E/DX2                !
 ! A28   A(10,12,11)           121.1261         estimate D2E/DX2                !
 ! A29   A(10,12,18)           119.5085         estimate D2E/DX2                !
 ! A30   A(11,12,18)           119.3643         estimate D2E/DX2                !
 ! A31   A(20,13,24)           109.4723         estimate D2E/DX2                !
 ! A32   A(20,13,25)           109.4723         estimate D2E/DX2                !
 ! A33   A(20,13,26)           109.4875         estimate D2E/DX2                !
 ! A34   A(24,13,25)           109.4904         estimate D2E/DX2                !
 ! A35   A(24,13,26)           109.4302         estimate D2E/DX2                !
 ! A36   A(25,13,26)           109.4747         estimate D2E/DX2                !
 ! A37   A(2,14,15)            108.6713         estimate D2E/DX2                !
 ! A38   A(2,14,27)            109.6821         estimate D2E/DX2                !
 ! A39   A(2,14,28)            109.6824         estimate D2E/DX2                !
 ! A40   A(15,14,27)           109.6667         estimate D2E/DX2                !
 ! A41   A(15,14,28)           109.6711         estimate D2E/DX2                !
 ! A42   A(27,14,28)           109.4523         estimate D2E/DX2                !
 ! A43   A(14,15,16)           110.48           estimate D2E/DX2                !
 ! A44   A(14,15,29)           109.2093         estimate D2E/DX2                !
 ! A45   A(14,15,30)           109.2354         estimate D2E/DX2                !
 ! A46   A(16,15,29)           109.2171         estimate D2E/DX2                !
 ! A47   A(16,15,30)           109.1864         estimate D2E/DX2                !
 ! A48   A(29,15,30)           109.4971         estimate D2E/DX2                !
 ! A49   A(3,16,15)            112.0886         estimate D2E/DX2                !
 ! A50   A(3,16,31)            108.8294         estimate D2E/DX2                !
 ! A51   A(3,16,32)            108.8073         estimate D2E/DX2                !
 ! A52   A(15,16,31)           108.82           estimate D2E/DX2                !
 ! A53   A(15,16,32)           108.8327         estimate D2E/DX2                !
 ! A54   A(31,16,32)           109.4323         estimate D2E/DX2                !
 ! A55   A(10,17,33)           109.4496         estimate D2E/DX2                !
 ! A56   A(10,17,34)           109.4695         estimate D2E/DX2                !
 ! A57   A(10,17,35)           109.5073         estimate D2E/DX2                !
 ! A58   A(33,17,34)           109.4889         estimate D2E/DX2                !
 ! A59   A(33,17,35)           109.4887         estimate D2E/DX2                !
 ! A60   A(34,17,35)           109.4234         estimate D2E/DX2                !
 ! A61   A(12,18,36)           109.4762         estimate D2E/DX2                !
 ! A62   A(12,18,37)           109.4977         estimate D2E/DX2                !
 ! A63   A(12,18,38)           109.4887         estimate D2E/DX2                !
 ! A64   A(36,18,37)           109.4182         estimate D2E/DX2                !
 ! A65   A(36,18,38)           109.4755         estimate D2E/DX2                !
 ! A66   A(37,18,38)           109.471          estimate D2E/DX2                !
 ! A67   A(8,19,39)            109.4629         estimate D2E/DX2                !
 ! A68   A(8,19,40)            109.4798         estimate D2E/DX2                !
 ! A69   A(8,19,41)            109.485          estimate D2E/DX2                !
 ! A70   A(39,19,40)           109.5132         estimate D2E/DX2                !
 ! A71   A(39,19,41)           109.4647         estimate D2E/DX2                !
 ! A72   A(40,19,41)           109.4218         estimate D2E/DX2                !
 ! A73   A(4,20,13)            110.4916         estimate D2E/DX2                !
 ! D1    D(7,1,2,5)             -0.127          estimate D2E/DX2                !
 ! D2    D(7,1,2,14)          -178.841          estimate D2E/DX2                !
 ! D3    D(2,1,7,4)             -1.3273         estimate D2E/DX2                !
 ! D4    D(1,2,5,4)              1.6203         estimate D2E/DX2                !
 ! D5    D(1,2,5,9)            178.4465         estimate D2E/DX2                !
 ! D6    D(14,2,5,4)          -179.6956         estimate D2E/DX2                !
 ! D7    D(14,2,5,9)            -2.8693         estimate D2E/DX2                !
 ! D8    D(1,2,14,15)          -39.1243         estimate D2E/DX2                !
 ! D9    D(1,2,14,27)         -159.0028         estimate D2E/DX2                !
 ! D10   D(1,2,14,28)           80.7598         estimate D2E/DX2                !
 ! D11   D(5,2,14,15)          142.4547         estimate D2E/DX2                !
 ! D12   D(5,2,14,27)           22.5762         estimate D2E/DX2                !
 ! D13   D(5,2,14,28)          -97.6612         estimate D2E/DX2                !
 ! D14   D(21,3,16,15)        -179.9827         estimate D2E/DX2                !
 ! D15   D(21,3,16,31)          59.6049         estimate D2E/DX2                !
 ! D16   D(21,3,16,32)         -59.5692         estimate D2E/DX2                !
 ! D17   D(7,4,5,2)             -2.6148         estimate D2E/DX2                !
 ! D18   D(7,4,5,9)           -178.9325         estimate D2E/DX2                !
 ! D19   D(20,4,5,2)           179.7415         estimate D2E/DX2                !
 ! D20   D(20,4,5,9)             3.4238         estimate D2E/DX2                !
 ! D21   D(5,4,7,1)              2.3379         estimate D2E/DX2                !
 ! D22   D(20,4,7,1)          -179.7079         estimate D2E/DX2                !
 ! D23   D(5,4,20,13)          -25.045          estimate D2E/DX2                !
 ! D24   D(7,4,20,13)          157.4627         estimate D2E/DX2                !
 ! D25   D(2,5,9,6)             66.234          estimate D2E/DX2                !
 ! D26   D(2,5,9,11)          -108.5049         estimate D2E/DX2                !
 ! D27   D(4,5,9,6)           -117.6791         estimate D2E/DX2                !
 ! D28   D(4,5,9,11)            67.582          estimate D2E/DX2                !
 ! D29   D(9,6,8,10)             1.036          estimate D2E/DX2                !
 ! D30   D(9,6,8,19)          -178.694          estimate D2E/DX2                !
 ! D31   D(22,6,8,10)         -178.9619         estimate D2E/DX2                !
 ! D32   D(22,6,8,19)            1.3081         estimate D2E/DX2                !
 ! D33   D(8,6,9,5)           -177.213          estimate D2E/DX2                !
 ! D34   D(8,6,9,11)            -2.2458         estimate D2E/DX2                !
 ! D35   D(22,6,9,5)             2.7848         estimate D2E/DX2                !
 ! D36   D(22,6,9,11)          177.752          estimate D2E/DX2                !
 ! D37   D(6,8,10,12)            0.0421         estimate D2E/DX2                !
 ! D38   D(6,8,10,17)         -179.2549         estimate D2E/DX2                !
 ! D39   D(19,8,10,12)         179.7785         estimate D2E/DX2                !
 ! D40   D(19,8,10,17)           0.4815         estimate D2E/DX2                !
 ! D41   D(6,8,19,39)           -0.2491         estimate D2E/DX2                !
 ! D42   D(6,8,19,40)         -120.3006         estimate D2E/DX2                !
 ! D43   D(6,8,19,41)          119.7462         estimate D2E/DX2                !
 ! D44   D(10,8,19,39)        -179.9818         estimate D2E/DX2                !
 ! D45   D(10,8,19,40)          59.9667         estimate D2E/DX2                !
 ! D46   D(10,8,19,41)         -59.9865         estimate D2E/DX2                !
 ! D47   D(5,9,11,12)          177.3607         estimate D2E/DX2                !
 ! D48   D(5,9,11,23)           -2.6324         estimate D2E/DX2                !
 ! D49   D(6,9,11,12)            2.4375         estimate D2E/DX2                !
 ! D50   D(6,9,11,23)         -177.5556         estimate D2E/DX2                !
 ! D51   D(8,10,12,11)           0.1714         estimate D2E/DX2                !
 ! D52   D(8,10,12,18)        -179.4459         estimate D2E/DX2                !
 ! D53   D(17,10,12,11)        179.4758         estimate D2E/DX2                !
 ! D54   D(17,10,12,18)         -0.1414         estimate D2E/DX2                !
 ! D55   D(8,10,17,33)         179.9838         estimate D2E/DX2                !
 ! D56   D(8,10,17,34)          59.9765         estimate D2E/DX2                !
 ! D57   D(8,10,17,35)         -59.986          estimate D2E/DX2                !
 ! D58   D(12,10,17,33)          0.7284         estimate D2E/DX2                !
 ! D59   D(12,10,17,34)       -119.2789         estimate D2E/DX2                !
 ! D60   D(12,10,17,35)        120.7587         estimate D2E/DX2                !
 ! D61   D(9,11,12,10)          -1.4727         estimate D2E/DX2                !
 ! D62   D(9,11,12,18)         178.1451         estimate D2E/DX2                !
 ! D63   D(23,11,12,10)        178.5203         estimate D2E/DX2                !
 ! D64   D(23,11,12,18)         -1.8618         estimate D2E/DX2                !
 ! D65   D(10,12,18,36)         -0.4068         estimate D2E/DX2                !
 ! D66   D(10,12,18,37)       -120.3611         estimate D2E/DX2                !
 ! D67   D(10,12,18,38)        119.6122         estimate D2E/DX2                !
 ! D68   D(11,12,18,36)        179.9691         estimate D2E/DX2                !
 ! D69   D(11,12,18,37)         60.0148         estimate D2E/DX2                !
 ! D70   D(11,12,18,38)        -60.0119         estimate D2E/DX2                !
 ! D71   D(24,13,20,4)        -179.9841         estimate D2E/DX2                !
 ! D72   D(25,13,20,4)          59.9911         estimate D2E/DX2                !
 ! D73   D(26,13,20,4)         -60.0237         estimate D2E/DX2                !
 ! D74   D(2,14,15,16)         -87.8315         estimate D2E/DX2                !
 ! D75   D(2,14,15,29)          32.3144         estimate D2E/DX2                !
 ! D76   D(2,14,15,30)         152.0441         estimate D2E/DX2                !
 ! D77   D(27,14,15,16)         32.0566         estimate D2E/DX2                !
 ! D78   D(27,14,15,29)        152.2025         estimate D2E/DX2                !
 ! D79   D(27,14,15,30)        -88.0678         estimate D2E/DX2                !
 ! D80   D(28,14,15,16)        152.2774         estimate D2E/DX2                !
 ! D81   D(28,14,15,29)        -87.5767         estimate D2E/DX2                !
 ! D82   D(28,14,15,30)         32.153          estimate D2E/DX2                !
 ! D83   D(14,15,16,3)        -123.5484         estimate D2E/DX2                !
 ! D84   D(14,15,16,31)         -3.1305         estimate D2E/DX2                !
 ! D85   D(14,15,16,32)        116.0529         estimate D2E/DX2                !
 ! D86   D(29,15,16,3)         116.3105         estimate D2E/DX2                !
 ! D87   D(29,15,16,31)       -123.2717         estimate D2E/DX2                !
 ! D88   D(29,15,16,32)         -4.0883         estimate D2E/DX2                !
 ! D89   D(30,15,16,3)          -3.3946         estimate D2E/DX2                !
 ! D90   D(30,15,16,31)        117.0233         estimate D2E/DX2                !
 ! D91   D(30,15,16,32)       -123.7934         estimate D2E/DX2                !
 --------------------------------------------------------------------------------
 Trust Radius=3.00D-01 FncErr=1.00D-07 GrdErr=1.00D-07
 Number of steps in this run= 216 maximum allowed number of steps= 246.
 GradGradGradGradGradGradGradGradGradGradGradGradGradGradGradGradGradGrad

                          Input orientation:                          
 ---------------------------------------------------------------------
 Center     Atomic      Atomic             Coordinates (Angstroms)
 Number     Number       Type             X           Y           Z
 ---------------------------------------------------------------------
      1          7           0      -65.268000    0.115000  -26.923000
      2          6           0      -64.245000   -0.160000  -27.754000
      3          8           0      -61.537000    3.507000  -27.900000
      4          6           0      -66.070000   -0.929000  -28.602000
      5          7           0      -64.781000   -0.818000  -28.757000
      6          6           0      -62.984000   -2.151000  -29.556000
      7          7           0      -66.457000   -0.395000  -27.451000
      8          6           0      -62.091000   -2.547000  -30.547000
      9          6           0      -63.997000   -1.193000  -29.754000
     10          6           0      -62.162000   -1.945000  -31.869000
     11          6           0      -64.064000   -0.585000  -31.008000
     12          6           0      -63.209000   -0.932000  -32.051000
     13          6           0      -66.714000   -1.732000  -31.242000
     14          6           0      -62.791000    0.196000  -27.539000
     15          6           0      -62.716000    1.579000  -26.920000
     16          6           0      -62.693000    2.650000  -28.007000
     17          6           0      -61.241000   -2.337000  -32.988000
     18          6           0      -63.367000   -0.266000  -33.382000
     19          6           0      -61.057000   -3.588000  -30.285000
     20         16           0      -67.254000   -1.680000  -29.604000
     21          1           0      -61.587000    4.152000  -28.609000
     22          1           0      -62.895000   -2.604000  -28.580000
     23          1           0      -64.805000    0.182000  -31.176000
     24          1           0      -67.474000   -2.209000  -31.860000
     25          1           0      -65.787000   -2.302000  -31.301000
     26          1           0      -66.540000   -0.717000  -31.600000
     27          1           0      -62.267000    0.193000  -28.495000
     28          1           0      -62.330000   -0.531000  -26.870000
     29          1           0      -63.586000    1.734000  -26.282000
     30          1           0      -61.808000    1.656000  -26.322000
     31          1           0      -62.680000    2.162000  -28.981000
     32          1           0      -63.592000    3.260000  -27.919000
     33          1           0      -61.482000   -1.755000  -33.877000
     34          1           0      -61.363000   -3.398000  -33.204000
     35          1           0      -60.209000   -2.143000  -32.695000
     36          1           0      -62.620000   -0.655000  -34.074000
     37          1           0      -63.231000    0.810000  -33.269000
     38          1           0      -64.364000   -0.467000  -33.773000
     39          1           0      -61.141000   -3.932000  -29.254000
     40          1           0      -60.066000   -3.165000  -30.448000
     41          1           0      -61.208000   -4.429000  -30.962000
 ---------------------------------------------------------------------
                    Distance matrix (angstroms):
                    1          2          3          4          5
     1  N    0.000000
     2  C    1.346371   0.000000
     3  O    5.136200   4.560863   0.000000
     4  C    2.133584   2.154319   6.381143   0.000000
     5  N    2.114525   1.313876   5.473903   1.303022   0.000000
     6  C    4.157415   2.966716   6.070347   3.453519   2.375815
     7  N    1.397356   2.244990   6.295523   1.326547   2.166458
     8  C    5.505720   4.258912   6.630569   4.715230   3.664647
     9  C    3.367620   2.264640   5.619512   2.386237   1.322607
    10  C    6.193041   4.945537   6.772584   5.194036   4.220644
    11  C    4.315882   3.286625   5.726243   3.151382   2.373895
    12  C    5.624240   4.487036   6.303262   4.481175   3.651659
    13  C    4.914884   4.553382   8.088103   2.833575   3.278279
    14  C    2.553732   1.512309   3.558870   3.625939   2.543977
    15  C    2.942110   2.461203   2.463255   4.513148   3.658470
    16  C    3.772520   3.220064   1.442995   4.956551   4.116949
    17  C    7.682009   6.415458   7.754205   6.673732   5.721916
    18  C    6.743711   5.697061   6.901938   5.531200   4.867723
    19  C    6.538178   5.321700   7.500510   5.918863   4.886293
    20  S    3.788665   3.845384   7.905231   1.723328   2.752487
    21  H    5.717493   5.137055   0.959795   6.775980   5.909690
    22  H    3.971113   2.911685   6.296895   3.589810   2.603482
    23  H    4.278652   3.484343   5.698037   3.075715   2.617659
    24  H    5.885693   5.611067   9.143425   3.771496   4.337711
    25  H    5.027736   4.421214   7.960765   3.041352   3.112271
    26  H    4.917778   4.513202   7.520784   3.042014   3.344687
    27  H    3.388697   2.141535   3.445217   3.966502   2.722308
    28  H    3.008649   2.141570   4.242074   4.140752   3.106532
    29  H    2.420985   2.487630   3.155924   4.317896   3.750514
    30  H    3.835034   3.359680   2.447392   5.481356   4.570408
    31  H    3.888871   3.057194   2.069791   4.603262   3.653050
    32  H    3.700273   3.485690   2.069878   4.914743   4.329671
    33  H    8.135651   6.904297   7.963429   7.039719   6.162448
    34  H    8.187866   6.963696   8.708715   7.030662   6.173729
    35  H    8.000502   6.680948   7.528487   7.251053   6.177917
    36  H    7.664307   6.544314   7.524188   6.474593   5.741688
    37  H    6.701053   5.690722   6.242564   5.732794   5.040935
    38  H    6.933862   6.027999   7.633920   5.464716   5.045527
    39  H    6.232487   5.110068   7.571582   5.808455   4.815974
    40  H    7.088359   5.809622   7.291895   6.667490   5.531647
    41  H    7.310613   6.143207   8.512590   6.438839   5.537840
                    6          7          8          9         10
     6  C    0.000000
     7  N    4.424510   0.000000
     8  C    1.391526   5.768733   0.000000
     9  C    1.408239   3.462977   2.468806   0.000000
    10  C    2.463349   6.353601   1.454348   2.899302   0.000000
    11  C    2.393128   4.291247   2.820407   1.395231   2.491691
    12  C    2.785967   5.656666   2.473897   2.442391   1.468163
    13  C    4.114737   4.028064   4.745459   3.144321   4.599913
    14  C    3.100637   3.714375   4.130631   2.879233   4.871183
    15  C    4.575284   4.263064   5.528981   4.166113   6.100663
    16  C    5.053086   4.873280   5.815738   4.418266   6.025863
    17  C    3.853734   7.850885   2.593276   4.400344   1.501355
    18  C    4.282311   6.688909   3.855952   3.797185   2.561296
    19  C    2.511919   6.883807   1.490463   3.829045   2.535652
    20  S    4.296166   2.630940   5.319540   3.296622   5.579329
    21  H    6.525046   6.762623   6.991885   5.973956   6.937697
    22  H    1.079679   4.340756   2.125736   2.140935   3.433525
    23  H    3.373919   4.115539   3.899856   2.136720   3.462633
    24  H    5.046967   4.874850   5.551117   4.190110   5.318564
    25  H    3.305244   4.348339   3.780074   2.612889   3.686556
    26  H    4.345046   4.162304   4.924562   3.178229   4.554913
    27  H    2.670982   4.357956   3.427722   2.549309   3.995741
    28  H    3.204171   4.169914   4.200203   3.396261   5.197848
    29  H    5.116122   3.760564   6.225127   4.559719   6.839400
    30  H    5.131762   5.205232   5.966232   4.968616   6.622819
    31  H    4.361767   4.810912   4.997395   3.686196   5.047407
    32  H    5.685803   4.667577   6.548331   4.833266   6.688754
    33  H    4.591717   8.239763   3.476643   4.862119   2.128512
    34  H    4.182171   8.250082   2.883372   4.868519   2.128811
    35  H    4.189751   8.342215   2.884275   4.888857   2.129716
    36  H    4.773137   7.658609   4.037231   4.565958   2.595359
    37  H    4.755512   6.760786   4.469713   4.117522   3.269983
    38  H    4.745877   6.659844   4.460942   4.100503   3.264736
    39  H    2.580662   6.634835   2.119569   3.988591   3.439307
    40  H    3.215367   7.582862   2.119516   4.452323   2.810846
    41  H    3.212522   7.493482   2.119867   4.439536   2.811231
                   11         12         13         14         15
    11  C    0.000000
    12  C    1.392581   0.000000
    13  C    2.897044   3.685038   0.000000
    14  C    3.776831   4.669609   5.728815   0.000000
    15  C    4.817857   5.733701   6.754732   1.517061   0.000000
    16  C    4.620700   5.426870   6.770199   2.500149   1.526152
    17  C    3.867717   2.593264   5.776528   6.205658   7.370977
    18  C    2.494684   1.496690   4.234521   5.889471   6.751686
    19  C    4.310776   3.847622   6.030111   4.986575   6.385405
    20  S    3.653264   4.786370   1.725499   5.263266   6.198256
    21  H    5.859172   6.350221   8.236521   4.271352   3.278367
    22  H    3.367210   3.865491   4.736179   2.989063   4.503902
    23  H    1.079627   2.133972   2.704077   4.157422   4.942577
    24  H    3.871870   4.456168   1.089520   6.810694   7.835248
    25  H    2.450034   3.014214   1.089821   5.419286   6.609566
    26  H    2.549209   3.368262   1.090259   5.601811   6.465059
    27  H    3.185853   3.846833   5.570228   1.090193   2.145512
    28  H    4.486950   5.270313   6.306841   1.090234   2.145599
    29  H    5.285955   6.366400   6.811691   2.139513   1.089940
    30  H    5.663057   6.440651   7.730057   2.139855   1.089953
    31  H    3.683774   4.390624   6.045537   2.440664   2.142173
    32  H    4.954667   5.898557   6.760864   3.189686   2.142694
    33  H    4.033210   2.644643   5.858121   6.759447   7.812692
    34  H    4.475577   3.289116   5.937862   6.859172   8.129563
    35  H    4.487132   3.298675   6.677960   6.222699   7.313615
    36  H    3.389748   2.125130   5.093230   6.592395   7.495311
    37  H    2.784248   2.125693   4.764639   5.779576   6.416104
    38  H    2.783729   2.124979   3.678136   6.463486   7.339321
    39  H    4.777327   4.593455   6.312723   4.764883   6.188643
    40  H    4.791034   4.175446   6.846885   5.213850   6.478798
    41  H    4.789070   4.173599   6.137446   5.967700   7.396478
                   16         17         18         19         20
    16  C    0.000000
    17  C    7.196446   0.000000
    18  C    6.152069   2.994020   0.000000
    19  C    6.839475   2.984136   5.095409   0.000000
    20  S    6.488608   6.931037   5.601915   6.519742   0.000000
    21  H    1.960011   7.835973   6.743045   7.937095   8.192505
    22  H    5.289012   4.715662   5.361738   2.693237   4.572005
    23  H    4.538075   4.725548   2.671139   5.390203   3.454827
    24  H    7.830291   6.335539   4.791574   6.749826   2.327612
    25  H    6.704146   4.849052   3.785797   5.005892   2.327828
    26  H    6.248660   5.712298   3.666995   6.327334   2.328343
    27  H    2.540958   5.257435   5.030253   4.354786   5.441340
    28  H    3.397543   6.471281   6.599374   4.756890   5.748107
    29  H    2.147587   8.187949   7.379564   7.123450   6.012096
    30  H    2.147204   7.791091   7.481187   6.615807   7.180483
    31  H    1.089490   6.194172   5.073062   6.115312   6.005878
    32  H    1.089975   7.908753   6.505972   7.675890   6.375976
    33  H    7.438242   1.089553   2.452625   4.054994   7.181931
    34  H    8.084307   1.089615   3.722516   2.941139   7.114450
    35  H    7.149857   1.090188   3.737387   2.935171   7.707183
    36  H    6.909185   2.431082   1.090043   5.040038   6.519623
    37  H    5.600329   3.733988   1.090432   5.742207   5.984718
    38  H    6.764221   3.723742   1.089629   5.730884   5.215748
    39  H    6.876513   4.061623   5.952732   1.090116   6.524015
    40  H    6.831825   2.918529   5.282912   1.089761   7.388160
    41  H    7.813417   2.912427   5.277144   1.090143   6.779032
                   21         22         23         24         25
    21  H    0.000000
    22  H    6.881514   0.000000
    23  H    5.718908   4.260177   0.000000
    24  H    9.256786   5.646385   3.648054   0.000000
    25  H    8.157265   3.982299   2.673987   1.779635   0.000000
    26  H    7.562106   5.095802   1.999550   1.779331   1.780066
    27  H    4.018591   2.867894   3.691792   6.648735   5.146752
    28  H    5.050412   2.746025   5.017532   7.360470   5.892457
    29  H    3.906105   4.957472   5.276922   7.859890   6.806178
    30  H    3.392525   4.942442   5.892029   8.815397   7.502576
    31  H    2.300681   4.787670   3.640611   7.097656   5.912964
    32  H    2.300389   5.942157   4.642575   7.778905   6.869628
    33  H    7.915523   5.547574   4.699968   6.338649   5.046584
    34  H    8.841193   4.935467   5.364378   6.369017   4.939069
    35  H    7.630289   4.935620   5.369935   7.313126   5.751748
    36  H    7.351229   5.835946   3.724674   5.556800   4.520180
    37  H    5.965509   5.809906   2.693048   5.394691   4.482265
    38  H    7.464167   5.804479   2.712949   4.045520   3.391598
    39  H    8.121945   2.300951   5.834722   7.061647   5.332206
    40  H    7.696353   3.436188   5.847266   7.601720   5.848266
    41  H    8.905830   3.442458   5.851968   6.708022   5.060266
                   26         27         28         29         30
    26  H    0.000000
    27  H    5.359818   0.000000
    28  H    6.334950   1.780104   0.000000
    29  H    6.558555   3.001968   2.655844   0.000000
    30  H    7.475308   2.659507   2.314251   1.780160   0.000000
    31  H    5.481551   2.069716   3.439632   2.878997   2.843713
    32  H    6.169035   3.390264   4.130947   2.237964   2.881993
    33  H    5.643185   5.777270   7.163472   8.618814   8.295735
    34  H    6.046644   5.990591   7.019568   8.899058   8.550021
    35  H    6.581342   5.228026   6.405295   8.219600   7.589752
    36  H    4.635830   5.654109   7.210901   8.207054   8.129795
    37  H    4.008338   4.909283   6.599794   7.056768   7.141530
    38  H    3.085353   5.717543   7.196712   7.846322   8.158288
    39  H    6.707395   4.342762   4.320183   6.849406   6.345649
    40  H    7.016586   4.464838   4.986556   7.331177   6.580310
    41  H    6.528109   5.345134   5.761749   8.095669   7.675730
                   31         32         33         34         35
    31  H    0.000000
    32  H    1.779099   0.000000
    33  H    6.383487   8.068463   0.000000
    34  H    7.105056   8.787982   1.779477   0.000000
    35  H    6.199408   7.965380   1.779943   1.779276   0.000000
    36  H    5.820459   7.359078   1.594946   3.140223   3.150985
    37  H    4.529729   5.895364   3.163525   4.604445   4.264055
    38  H    5.719332   6.982537   3.158431   4.233264   4.608154
    39  H    6.291255   7.714564   5.121302   3.992110   3.988687
    40  H    6.112447   7.753009   3.968778   3.054838   2.472639
    41  H    7.037928   8.606046   3.965170   2.472559   3.037612
                   36         37         38         39         40
    36  H    0.000000
    37  H    1.779767   0.000000
    38  H    1.779742   1.780010   0.000000
    39  H    6.013200   6.555524   6.543341   0.000000
    40  H    5.096164   5.811703   6.066929   1.780323   0.000000
    41  H    5.091303   6.071400   5.793056   1.780102   1.779341
                   41
    41  H    0.000000
 Stoichiometry    C15H21N3OS
 Framework group  C1[X(C15H21N3OS)]
 Deg. of freedom   117
 Full point group                 C1      NOp   1
 Largest Abelian subgroup         C1      NOp   1
 Largest concise Abelian subgroup C1      NOp   1
                         Standard orientation:                         
 ---------------------------------------------------------------------
 Center     Atomic      Atomic             Coordinates (Angstroms)
 Number     Number       Type             X           Y           Z
 ---------------------------------------------------------------------
      1          7           0       -2.913463    1.043646   -0.734126
      2          6           0       -1.877909    0.183804   -0.702277
      3          8           0       -3.297343   -3.640269    1.338102
      4          6           0       -1.166223    2.163857   -0.239695
      5          7           0       -0.826689    0.918335   -0.416497
      6          6           0        0.966977   -0.294206   -1.394764
      7          7           0       -2.463783    2.336791   -0.454534
      8          6           0        2.169778   -0.989582   -1.316873
      9          6           0        0.344766    0.317627   -0.289480
     10          6           0        2.842247   -1.132871   -0.035318
     11          6           0        0.961279    0.168388    0.953222
     12          6           0        2.168133   -0.508566    1.109809
     13          6           0        1.229809    3.052793    0.984222
     14          6           0       -1.934647   -1.302841   -0.973835
     15          6           0       -3.206097   -1.860128   -0.362016
     16          6           0       -2.969464   -2.256628    1.092609
     17          6           0        4.149287   -1.855684    0.117175
     18          6           0        2.791485   -0.592895    2.467897
     19          6           0        2.794520   -1.591987   -2.528602
     20         16           0       -0.203763    3.537717    0.155326
     21          1           0       -3.126164   -3.819204    2.265402
     22          1           0        0.483486   -0.219658   -2.357253
     23          1           0        0.485894    0.592687    1.824757
     24          1           0        1.824916    3.932848    1.225891
     25          1           0        1.809759    2.385434    0.347041
     26          1           0        0.960037    2.533584    1.904173
     27          1           0       -1.068086   -1.790981   -0.527392
     28          1           0       -1.936863   -1.479787   -2.049612
     29          1           0       -3.987110   -1.101059   -0.404451
     30          1           0       -3.521074   -2.738087   -0.925908
     31          1           0       -1.919368   -2.095858    1.334353
     32          1           0       -3.589237   -1.629584    1.733501
     33          1           0        4.456401   -1.833408    1.162312
     34          1           0        4.907478   -1.368169   -0.494982
     35          1           0        4.032897   -2.890426   -0.205736
     36          1           0        3.723661   -1.154476    2.405692
     37          1           0        2.108471   -1.098643    3.151088
     38          1           0        2.996490    0.411682    2.836801
     39          1           0        2.166761   -1.393879   -3.397524
     40          1           0        2.894085   -2.668204   -2.389235
     41          1           0        3.780438   -1.154010   -2.685294
 ---------------------------------------------------------------------
 Rotational constants (GHZ):      0.3169969      0.2607429      0.1833932
 Standard basis: 6-31G(d) (6D, 7F)
 There are   346 symmetry adapted basis functions of A   symmetry.
 Integral buffers will be    131072 words long.
 Raffenetti 1 integral format.
 Two-electron integral symmetry is turned on.
   346 basis functions,   668 primitive gaussians,   346 cartesian basis functions
    78 alpha electrons       78 beta electrons
       nuclear repulsion energy      1740.9198598116 Hartrees.
 NAtoms=   41 NActive=   41 NUniq=   41 SFac= 7.50D-01 NAtFMM=   80 NAOKFM=F Big=F
 One-electron integrals computed using PRISM.
 NBasis=   346 RedAO= T  NBF=   346
 NBsUse=   346 1.00D-06 NBFU=   346
 Harris functional with IExCor=  205 diagonalized for initial guess.
 ExpMin= 1.17D-01 ExpMax= 2.19D+04 ExpMxC= 3.30D+03 IAcc=1 IRadAn=         1 AccDes= 0.00D+00
 HarFok:  IExCor=  205 AccDes= 0.00D+00 IRadAn=         1 IDoV= 1
 ScaDFX=  1.000000  1.000000  1.000000  1.000000
 FoFCou: FMM=F IPFlag=           0 FMFlag=      100000 FMFlg1=           0
         NFxFlg=           0 DoJE=T BraDBF=F KetDBF=T FulRan=T
         Omega=  0.000000  0.000000  1.000000  0.000000  0.000000 ICntrl=     500 IOpCl=  0
         NMat0=    1 NMatS0=    1 NMatT0=    0 NMatD0=    1 NMtDS0=    0 NMtDT0=    0
         I1Cent=           4 NGrid=           0.
 Petite list used in FoFCou.
 Initial guess orbital symmetries:
       Occupied  (A) (A) (A) (A) (A) (A) (A) (A) (A) (A) (A) (A)
                 (A) (A) (A) (A) (A) (A) (A) (A) (A) (A) (A) (A)
                 (A) (A) (A) (A) (A) (A) (A) (A) (A) (A) (A) (A)
                 (A) (A) (A) (A) (A) (A) (A) (A) (A) (A) (A) (A)
                 (A) (A) (A) (A) (A) (A) (A) (A) (A) (A) (A) (A)
                 (A) (A) (A) (A) (A) (A) (A) (A) (A) (A) (A) (A)
                 (A) (A) (A) (A) (A) (A)
       Virtual   (A) (A) (A) (A) (A) (A) (A) (A) (A) (A) (A) (A)
                 (A) (A) (A) (A) (A) (A) (A) (A) (A) (A) (A) (A)
                 (A) (A) (A) (A) (A) (A) (A) (A) (A) (A) (A) (A)
                 (A) (A) (A) (A) (A) (A) (A) (A) (A) (A) (A) (A)
                 (A) (A) (A) (A) (A) (A) (A) (A) (A) (A) (A) (A)
                 (A) (A) (A) (A) (A) (A) (A) (A) (A) (A) (A) (A)
                 (A) (A) (A) (A) (A) (A) (A) (A) (A) (A) (A) (A)
                 (A) (A) (A) (A) (A) (A) (A) (A) (A) (A) (A) (A)
                 (A) (A) (A) (A) (A) (A) (A) (A) (A) (A) (A) (A)
                 (A) (A) (A) (A) (A) (A) (A) (A) (A) (A) (A) (A)
                 (A) (A) (A) (A) (A) (A) (A) (A) (A) (A) (A) (A)
                 (A) (A) (A) (A) (A) (A) (A) (A) (A) (A) (A) (A)
                 (A) (A) (A) (A) (A) (A) (A) (A) (A) (A) (A) (A)
                 (A) (A) (A) (A) (A) (A) (A) (A) (A) (A) (A) (A)
                 (A) (A) (A) (A) (A) (A) (A) (A) (A) (A) (A) (A)
                 (A) (A) (A) (A) (A) (A) (A) (A) (A) (A) (A) (A)
                 (A) (A) (A) (A) (A) (A) (A) (A) (A) (A) (A) (A)
                 (A) (A) (A) (A) (A) (A) (A) (A) (A) (A) (A) (A)
                 (A) (A) (A) (A) (A) (A) (A) (A) (A) (A) (A) (A)
                 (A) (A) (A) (A) (A) (A) (A) (A) (A) (A) (A) (A)
                 (A) (A) (A) (A) (A) (A) (A) (A) (A) (A) (A) (A)
                 (A) (A) (A) (A) (A) (A) (A) (A) (A) (A) (A) (A)
                 (A) (A) (A) (A)
 The electronic state of the initial guess is 1-A.
 Requested convergence on RMS density matrix=1.00D-08 within 128 cycles.
 Requested convergence on MAX density matrix=1.00D-06.
 Requested convergence on             energy=1.00D-06.
 No special actions if energy rises.
 Keep R1 ints in memory in canonical form, NReq=1823165371.
 SCF Done:  E(RHF) =  -1215.85574877     A.U. after   15 cycles
             Convg  =    0.7277D-08             -V/T =  2.0007

 **********************************************************************

            Population analysis using the SCF density.

 **********************************************************************

 Orbital symmetries:
 BldTbl:  Degeneracy threshold= 1.00D-02
       Occupied  (A) (A) (A) (A) (A) (A) (A) (A) (A) (A) (A) (A)
                 (A) (A) (A) (A) (A) (A) (A) (A) (A) (A) (A) (A)
                 (A) (A) (A) (A) (A) (A) (A) (A) (A) (A) (A) (A)
                 (A) (A) (A) (A) (A) (A) (A) (A) (A) (A) (A) (A)
                 (A) (A) (A) (A) (A) (A) (A) (A) (A) (A) (A) (A)
                 (A) (A) (A) (A) (A) (A) (A) (A) (A) (A) (A) (A)
                 (A) (A) (A) (A) (A) (A)
       Virtual   (A) (A) (A) (A) (A) (A) (A) (A) (A) (A) (A) (A)
                 (A) (A) (A) (A) (A) (A) (A) (A) (A) (A) (A) (A)
                 (A) (A) (A) (A) (A) (A) (A) (A) (A) (A) (A) (A)
                 (A) (A) (A) (A) (A) (A) (A) (A) (A) (A) (A) (A)
                 (A) (A) (A) (A) (A) (A) (A) (A) (A) (A) (A) (A)
                 (A) (A) (A) (A) (A) (A) (A) (A) (A) (A) (A) (A)
                 (A) (A) (A) (A) (A) (A) (A) (A) (A) (A) (A) (A)
                 (A) (A) (A) (A) (A) (A) (A) (A) (A) (A) (A) (A)
                 (A) (A) (A) (A) (A) (A) (A) (A) (A) (A) (A) (A)
                 (A) (A) (A) (A) (A) (A) (A) (A) (A) (A) (A) (A)
                 (A) (A) (A) (A) (A) (A) (A) (A) (A) (A) (A) (A)
                 (A) (A) (A) (A) (A) (A) (A) (A) (A) (A) (A) (A)
                 (A) (A) (A) (A) (A) (A) (A) (A) (A) (A) (A) (A)
                 (A) (A) (A) (A) (A) (A) (A) (A) (A) (A) (A) (A)
                 (A) (A) (A) (A) (A) (A) (A) (A) (A) (A) (A) (A)
                 (A) (A) (A) (A) (A) (A) (A) (A) (A) (A) (A) (A)
                 (A) (A) (A) (A) (A) (A) (A) (A) (A) (A) (A) (A)
                 (A) (A) (A) (A) (A) (A) (A) (A) (A) (A) (A) (A)
                 (A) (A) (A) (A) (A) (A) (A) (A) (A) (A) (A) (A)
                 (A) (A) (A) (A) (A) (A) (A) (A) (A) (A) (A) (A)
                 (A) (A) (A) (A) (A) (A) (A) (A) (A) (A) (A) (A)
                 (A) (A) (A) (A) (A) (A) (A) (A) (A) (A) (A) (A)
                 (A) (A) (A) (A)
 The electronic state is 1-A.
 Alpha  occ. eigenvalues --  -91.95261 -20.55489 -15.64309 -15.57631 -15.56967
 Alpha  occ. eigenvalues --  -11.32139 -11.29882 -11.29326 -11.27272 -11.27235
 Alpha  occ. eigenvalues --  -11.26841 -11.26718 -11.26143 -11.25350 -11.25314
 Alpha  occ. eigenvalues --  -11.24715 -11.24501 -11.24085 -11.24073 -11.21723
 Alpha  occ. eigenvalues --   -8.96539  -6.64868  -6.64689  -6.64476  -1.43249
 Alpha  occ. eigenvalues --   -1.34423  -1.26220  -1.16663  -1.13813  -1.08416
 Alpha  occ. eigenvalues --   -1.08172  -1.06864  -1.03835  -0.99802  -0.95847
 Alpha  occ. eigenvalues --   -0.94265  -0.93850  -0.89509  -0.86454  -0.85900
 Alpha  occ. eigenvalues --   -0.80590  -0.79793  -0.75640  -0.71770  -0.70960
 Alpha  occ. eigenvalues --   -0.68817  -0.66968  -0.65501  -0.64166  -0.62903
 Alpha  occ. eigenvalues --   -0.62104  -0.61810  -0.61164  -0.59700  -0.59534
 Alpha  occ. eigenvalues --   -0.59071  -0.58476  -0.57919  -0.57766  -0.57167
 Alpha  occ. eigenvalues --   -0.56376  -0.53798  -0.53582  -0.52360  -0.51499
 Alpha  occ. eigenvalues --   -0.51086  -0.49018  -0.48658  -0.47432  -0.46557
 Alpha  occ. eigenvalues --   -0.45353  -0.43637  -0.41606  -0.41402  -0.39990
 Alpha  occ. eigenvalues --   -0.34147  -0.32541  -0.30257
 Alpha virt. eigenvalues --    0.10266   0.11827   0.17274   0.19401   0.20563
 Alpha virt. eigenvalues --    0.21708   0.22268   0.23021   0.23852   0.24592
 Alpha virt. eigenvalues --    0.25718   0.26087   0.26614   0.26944   0.27416
 Alpha virt. eigenvalues --    0.28030   0.28370   0.29248   0.30311   0.30694
 Alpha virt. eigenvalues --    0.31755   0.33213   0.33955   0.34016   0.35102
 Alpha virt. eigenvalues --    0.36058   0.37062   0.38182   0.39096   0.39940
 Alpha virt. eigenvalues --    0.40711   0.41463   0.41775   0.41924   0.44009
 Alpha virt. eigenvalues --    0.45121   0.45713   0.47668   0.48595   0.49782
 Alpha virt. eigenvalues --    0.52678   0.54034   0.54826   0.55797   0.56173
 Alpha virt. eigenvalues --    0.59197   0.60144   0.62449   0.63589   0.67933
 Alpha virt. eigenvalues --    0.68451   0.69227   0.70807   0.71117   0.71993
 Alpha virt. eigenvalues --    0.73038   0.73981   0.74365   0.75202   0.76639
 Alpha virt. eigenvalues --    0.77479   0.78534   0.79351   0.80443   0.81187
 Alpha virt. eigenvalues --    0.82836   0.83560   0.84727   0.85174   0.86685
 Alpha virt. eigenvalues --    0.87473   0.88461   0.89590   0.91212   0.92010
 Alpha virt. eigenvalues --    0.92837   0.94134   0.96301   0.96895   0.97221
 Alpha virt. eigenvalues --    0.97431   0.98541   0.99424   1.00476   1.01316
 Alpha virt. eigenvalues --    1.01414   1.02370   1.02882   1.04121   1.05843
 Alpha virt. eigenvalues --    1.06134   1.06840   1.08428   1.08909   1.09396
 Alpha virt. eigenvalues --    1.10712   1.11139   1.11896   1.12260   1.13248
 Alpha virt. eigenvalues --    1.13316   1.14204   1.14607   1.15536   1.15865
 Alpha virt. eigenvalues --    1.16335   1.16786   1.17363   1.18704   1.18884
 Alpha virt. eigenvalues --    1.19175   1.20246   1.20307   1.21392   1.21805
 Alpha virt. eigenvalues --    1.22969   1.23782   1.24364   1.25336   1.25521
 Alpha virt. eigenvalues --    1.26300   1.27438   1.28391   1.29011   1.29794
 Alpha virt. eigenvalues --    1.30965   1.34029   1.34323   1.36515   1.38616
 Alpha virt. eigenvalues --    1.39654   1.40475   1.42055   1.42816   1.44806
 Alpha virt. eigenvalues --    1.46456   1.47846   1.49108   1.51790   1.53049
 Alpha virt. eigenvalues --    1.58076   1.58614   1.60227   1.60527   1.62276
 Alpha virt. eigenvalues --    1.63197   1.65089   1.65540   1.66892   1.68626
 Alpha virt. eigenvalues --    1.70890   1.72818   1.76058   1.78119   1.81488
 Alpha virt. eigenvalues --    1.81693   1.83164   1.85980   1.88119   1.93167
 Alpha virt. eigenvalues --    1.93807   1.96805   1.99204   2.00809   2.02059
 Alpha virt. eigenvalues --    2.02319   2.05164   2.06124   2.06820   2.07704
 Alpha virt. eigenvalues --    2.09189   2.10179   2.12330   2.13135   2.13374
 Alpha virt. eigenvalues --    2.16503   2.18765   2.20076   2.20397   2.21141
 Alpha virt. eigenvalues --    2.23408   2.23735   2.25772   2.27172   2.28312
 Alpha virt. eigenvalues --    2.29623   2.31879   2.34617   2.36475   2.37507
 Alpha virt. eigenvalues --    2.38709   2.41759   2.42442   2.44343   2.45530
 Alpha virt. eigenvalues --    2.47521   2.51635   2.52911   2.53088   2.53317
 Alpha virt. eigenvalues --    2.55405   2.55718   2.57153   2.58727   2.58815
 Alpha virt. eigenvalues --    2.59280   2.60205   2.61975   2.62382   2.63443
 Alpha virt. eigenvalues --    2.64253   2.64815   2.67458   2.68297   2.69008
 Alpha virt. eigenvalues --    2.70680   2.71165   2.72812   2.73659   2.78046
 Alpha virt. eigenvalues --    2.78338   2.80195   2.81960   2.83147   2.83919
 Alpha virt. eigenvalues --    2.86760   2.90626   2.91976   2.94317   2.94993
 Alpha virt. eigenvalues --    3.02626   3.03189   3.06277   3.08239   3.12881
 Alpha virt. eigenvalues --    3.15069   3.16692   3.17566   3.17929   3.22602
 Alpha virt. eigenvalues --    3.25409   3.29937   3.34297   3.37234   3.48183
 Alpha virt. eigenvalues --    3.64622   3.68038   3.78801   4.15922   4.18137
 Alpha virt. eigenvalues --    4.36137   4.48018   4.53180   4.55601   4.59248
 Alpha virt. eigenvalues --    4.62645   4.64642   4.67367   4.69886   4.71748
 Alpha virt. eigenvalues --    4.72297   4.75610   4.83784   4.87167   4.93057
 Alpha virt. eigenvalues --    4.95343   5.04338   5.22476
          Condensed to atoms (all electrons):
              1          2          3          4          5          6
     1  N    6.878249   0.472589   0.000001  -0.136253  -0.092035   0.000090
     2  C    0.472589   4.761886   0.000097  -0.090664   0.348737  -0.004755
     3  O    0.000001   0.000097   8.392558   0.000000   0.000000   0.000000
     4  C   -0.136253  -0.090664   0.000000   4.974565   0.323547   0.001797
     5  N   -0.092035   0.348737   0.000000   0.323547   7.169598  -0.059650
     6  C    0.000090  -0.004755   0.000000   0.001797  -0.059650   4.982120
     7  N    0.314379  -0.110265   0.000000   0.450809  -0.069371  -0.000189
     8  C   -0.000005   0.000118   0.000000  -0.000056   0.003707   0.565463
     9  C    0.011035  -0.051957   0.000001  -0.039194   0.166099   0.564005
    10  C    0.000000   0.000017   0.000000  -0.000004   0.000478  -0.042743
    11  C   -0.000179   0.000851   0.000000  -0.002578  -0.074605  -0.053970
    12  C   -0.000002  -0.000027   0.000000   0.000104   0.003469  -0.036576
    13  C   -0.000104   0.000105   0.000000  -0.017934  -0.000763  -0.000157
    14  C   -0.040306   0.316854   0.001451   0.003239  -0.047170  -0.010140
    15  C   -0.012052  -0.043391  -0.037052  -0.000233   0.002491   0.000467
    16  C    0.000845  -0.006554   0.212064  -0.000008   0.000149   0.000020
    17  C    0.000000   0.000000   0.000000   0.000000   0.000001   0.002722
    18  C    0.000000   0.000000   0.000000  -0.000002  -0.000134   0.000518
    19  C    0.000000  -0.000008   0.000000   0.000001  -0.000128  -0.038087
    20  S    0.004316   0.003584   0.000000   0.246627  -0.046607   0.000360
    21  H    0.000000   0.000002   0.259029   0.000000   0.000000   0.000000
    22  H   -0.000083   0.001694   0.000000   0.000229  -0.000229   0.373551
    23  H   -0.000030   0.000325   0.000000   0.001569   0.000271   0.002632
    24  H    0.000000   0.000003   0.000000   0.002842  -0.000140   0.000008
    25  H    0.000004  -0.000050   0.000000  -0.005680   0.001652   0.000723
    26  H   -0.000013  -0.000082   0.000000  -0.002852   0.001614  -0.000105
    27  H    0.001763  -0.040995   0.000433  -0.000079  -0.003536  -0.002701
    28  H   -0.001040  -0.042871  -0.000089   0.000030  -0.000222  -0.000018
    29  H    0.008087  -0.008118   0.001392   0.000088   0.000671  -0.000015
    30  H    0.000153   0.005555   0.000658   0.000003  -0.000074  -0.000003
    31  H   -0.000002  -0.001126  -0.038980  -0.000016  -0.000034  -0.000066
    32  H    0.000162   0.001107  -0.038063   0.000008  -0.000037  -0.000001
    33  H    0.000000   0.000000   0.000000   0.000000   0.000000  -0.000026
    34  H    0.000000   0.000000   0.000000   0.000000   0.000000   0.000005
    35  H    0.000000   0.000000   0.000000   0.000000   0.000000  -0.000071
    36  H    0.000000   0.000000   0.000000   0.000000   0.000001  -0.000023
    37  H    0.000000  -0.000001   0.000000   0.000001   0.000002   0.000001
    38  H    0.000000   0.000000   0.000000  -0.000003   0.000001   0.000022
    39  H    0.000000  -0.000002   0.000000   0.000000  -0.000007  -0.002291
    40  H    0.000000   0.000000   0.000000   0.000000   0.000002   0.000254
    41  H    0.000000   0.000000   0.000000   0.000000   0.000001   0.000085
              7          8          9         10         11         12
     1  N    0.314379  -0.000005   0.011035   0.000000  -0.000179  -0.000002
     2  C   -0.110265   0.000118  -0.051957   0.000017   0.000851  -0.000027
     3  O    0.000000   0.000000   0.000001   0.000000   0.000000   0.000000
     4  C    0.450809  -0.000056  -0.039194  -0.000004  -0.002578   0.000104
     5  N   -0.069371   0.003707   0.166099   0.000478  -0.074605   0.003469
     6  C   -0.000189   0.565463   0.564005  -0.042743  -0.053970  -0.036576
     7  N    6.801486   0.000000   0.006933   0.000000   0.000019  -0.000001
     8  C    0.000000   4.836494  -0.041918   0.555100  -0.035790  -0.035965
     9  C    0.006933  -0.041918   4.716583  -0.023064   0.576456  -0.040294
    10  C    0.000000   0.555100  -0.023064   4.893512  -0.041046   0.583311
    11  C    0.000019  -0.035790   0.576456  -0.041046   5.051270   0.529594
    12  C   -0.000001  -0.035965  -0.040294   0.583311   0.529594   4.856337
    13  C    0.001347  -0.000047  -0.007045   0.000063  -0.024380  -0.001838
    14  C    0.002701  -0.000634  -0.000350   0.000008  -0.000242  -0.000034
    15  C    0.000196   0.000015   0.000466  -0.000002   0.000035  -0.000005
    16  C   -0.000027   0.000003  -0.000440   0.000001  -0.000197  -0.000016
    17  C    0.000000  -0.046434   0.000136   0.318548   0.003666  -0.036134
    18  C    0.000000   0.003202   0.001171  -0.035204  -0.053966   0.316613
    19  C    0.000000   0.318427   0.002507  -0.051524   0.000394   0.002589
    20  S   -0.052518   0.000029   0.005465  -0.000021  -0.001085  -0.000135
    21  H    0.000000   0.000000   0.000000   0.000000   0.000000   0.000000
    22  H   -0.000024  -0.024486  -0.034602   0.002268   0.003262   0.000188
    23  H   -0.000056   0.000283  -0.034072   0.001660   0.379655  -0.026610
    24  H   -0.000005  -0.000004   0.000419  -0.000007   0.001097   0.000028
    25  H   -0.000116   0.000292  -0.003500   0.000703  -0.006173  -0.001519
    26  H    0.000169   0.000010  -0.003097  -0.000031  -0.001714   0.000390
    27  H   -0.000098  -0.000244   0.003143   0.000135   0.000360   0.000158
    28  H   -0.000001  -0.000003  -0.000367   0.000002  -0.000012   0.000000
    29  H   -0.000179   0.000000  -0.000001   0.000000  -0.000001   0.000000
    30  H    0.000000   0.000000   0.000004   0.000000   0.000000   0.000000
    31  H    0.000001  -0.000026   0.000381  -0.000003   0.001195   0.000073
    32  H   -0.000003   0.000000   0.000014   0.000000  -0.000003   0.000000
    33  H    0.000000   0.003116  -0.000032  -0.046404   0.000321  -0.002066
    34  H    0.000000  -0.003874   0.000012  -0.042246  -0.000078   0.000305
    35  H    0.000000  -0.003925   0.000034  -0.041570  -0.000120   0.000614
    36  H    0.000000   0.000283  -0.000001  -0.003108   0.003939  -0.049491
    37  H    0.000000  -0.000087   0.000095   0.000586  -0.004096  -0.040946
    38  H    0.000000  -0.000100  -0.000122   0.000666  -0.004996  -0.040753
    39  H    0.000000  -0.045456   0.000339   0.003718  -0.000011  -0.000056
    40  H    0.000000  -0.042168  -0.000053  -0.004858   0.000010  -0.000017
    41  H    0.000000  -0.041785  -0.000049  -0.005066   0.000003   0.000000
             13         14         15         16         17         18
     1  N   -0.000104  -0.040306  -0.012052   0.000845   0.000000   0.000000
     2  C    0.000105   0.316854  -0.043391  -0.006554   0.000000   0.000000
     3  O    0.000000   0.001451  -0.037052   0.212064   0.000000   0.000000
     4  C   -0.017934   0.003239  -0.000233  -0.000008   0.000000  -0.000002
     5  N   -0.000763  -0.047170   0.002491   0.000149   0.000001  -0.000134
     6  C   -0.000157  -0.010140   0.000467   0.000020   0.002722   0.000518
     7  N    0.001347   0.002701   0.000196  -0.000027   0.000000   0.000000
     8  C   -0.000047  -0.000634   0.000015   0.000003  -0.046434   0.003202
     9  C   -0.007045  -0.000350   0.000466  -0.000440   0.000136   0.001171
    10  C    0.000063   0.000008  -0.000002   0.000001   0.318548  -0.035204
    11  C   -0.024380  -0.000242   0.000035  -0.000197   0.003666  -0.053966
    12  C   -0.001838  -0.000034  -0.000005  -0.000016  -0.036134   0.316613
    13  C    5.390139  -0.000004   0.000000   0.000000   0.000001  -0.000016
    14  C   -0.000004   5.165016   0.310446  -0.042443   0.000000   0.000001
    15  C    0.000000   0.310446   5.202831   0.316274   0.000000   0.000000
    16  C    0.000000  -0.042443   0.316274   4.801562   0.000000   0.000000
    17  C    0.000001   0.000000   0.000000   0.000000   5.117505  -0.019455
    18  C   -0.000016   0.000001   0.000000   0.000000  -0.019455   5.118548
    19  C    0.000000  -0.000001   0.000000   0.000000  -0.009451  -0.000109
    20  S    0.191693  -0.000045   0.000004   0.000000   0.000000   0.000009
    21  H    0.000000  -0.000236   0.005483  -0.023379   0.000000   0.000000
    22  H   -0.000005  -0.000323   0.000004   0.000001  -0.000097   0.000008
    23  H   -0.005335   0.000033  -0.000009   0.000004  -0.000095  -0.001275
    24  H    0.388985   0.000000   0.000000   0.000000   0.000000  -0.000004
    25  H    0.385568   0.000000   0.000000   0.000000  -0.000002  -0.000075
    26  H    0.373994   0.000001   0.000000   0.000000   0.000000   0.000084
    27  H    0.000001   0.402547  -0.039508  -0.008388   0.000000  -0.000003
    28  H    0.000000   0.404218  -0.036883   0.004659   0.000000   0.000000
    29  H    0.000000  -0.041041   0.397819  -0.032975   0.000000   0.000000
    30  H    0.000000  -0.040523   0.396480  -0.038105   0.000000   0.000000
    31  H    0.000000  -0.002576  -0.062871   0.403676   0.000000  -0.000006
    32  H    0.000000   0.001626  -0.042899   0.400345   0.000000   0.000000
    33  H    0.000000   0.000000   0.000000   0.000000   0.403288  -0.009332
    34  H    0.000000   0.000000   0.000000   0.000000   0.391245   0.000491
    35  H    0.000000   0.000000   0.000000   0.000000   0.390598   0.000522
    36  H    0.000001   0.000000   0.000000   0.000000  -0.009799   0.405129
    37  H   -0.000010   0.000000   0.000000   0.000001   0.000471   0.391461
    38  H    0.000278   0.000000   0.000000   0.000000   0.000514   0.390171
    39  H    0.000000  -0.000002   0.000000   0.000000   0.000120   0.000001
    40  H    0.000000   0.000002   0.000000   0.000000  -0.000057   0.000001
    41  H    0.000000   0.000000   0.000000   0.000000  -0.000038   0.000001
             19         20         21         22         23         24
     1  N    0.000000   0.004316   0.000000  -0.000083  -0.000030   0.000000
     2  C   -0.000008   0.003584   0.000002   0.001694   0.000325   0.000003
     3  O    0.000000   0.000000   0.259029   0.000000   0.000000   0.000000
     4  C    0.000001   0.246627   0.000000   0.000229   0.001569   0.002842
     5  N   -0.000128  -0.046607   0.000000  -0.000229   0.000271  -0.000140
     6  C   -0.038087   0.000360   0.000000   0.373551   0.002632   0.000008
     7  N    0.000000  -0.052518   0.000000  -0.000024  -0.000056  -0.000005
     8  C    0.318427   0.000029   0.000000  -0.024486   0.000283  -0.000004
     9  C    0.002507   0.005465   0.000000  -0.034602  -0.034072   0.000419
    10  C   -0.051524  -0.000021   0.000000   0.002268   0.001660  -0.000007
    11  C    0.000394  -0.001085   0.000000   0.003262   0.379655   0.001097
    12  C    0.002589  -0.000135   0.000000   0.000188  -0.026610   0.000028
    13  C    0.000000   0.191693   0.000000  -0.000005  -0.005335   0.388985
    14  C   -0.000001  -0.000045  -0.000236  -0.000323   0.000033   0.000000
    15  C    0.000000   0.000004   0.005483   0.000004  -0.000009   0.000000
    16  C    0.000000   0.000000  -0.023379   0.000001   0.000004   0.000000
    17  C   -0.009451   0.000000   0.000000  -0.000097  -0.000095   0.000000
    18  C   -0.000109   0.000009   0.000000   0.000008  -0.001275  -0.000004
    19  C    5.106778   0.000000   0.000000  -0.002617   0.000009   0.000000
    20  S    0.000000  15.548524   0.000000   0.000054   0.000281  -0.037328
    21  H    0.000000   0.000000   0.331168   0.000000   0.000000   0.000000
    22  H   -0.002617   0.000054   0.000000   0.457559  -0.000132   0.000000
    23  H    0.000009   0.000281   0.000000  -0.000132   0.459669   0.000121
    24  H    0.000000  -0.037328   0.000000   0.000000   0.000121   0.463136
    25  H   -0.000005  -0.047604   0.000000   0.000013  -0.000315  -0.020133
    26  H    0.000000  -0.048285   0.000000  -0.000001  -0.001651  -0.020234
    27  H   -0.000019  -0.000002  -0.000047  -0.000138   0.000020   0.000000
    28  H    0.000001  -0.000004   0.000005   0.000367   0.000000   0.000000
    29  H    0.000000  -0.000001  -0.000150   0.000001   0.000000   0.000000
    30  H    0.000000   0.000000   0.000041  -0.000001   0.000000   0.000000
    31  H    0.000000   0.000000  -0.003230   0.000001   0.000094   0.000000
    32  H    0.000000   0.000000  -0.003245   0.000000   0.000000   0.000000
    33  H    0.000111   0.000000   0.000000   0.000002  -0.000006   0.000000
    34  H    0.000057   0.000000   0.000000   0.000000   0.000002   0.000000
    35  H    0.000085   0.000000   0.000000   0.000000   0.000002   0.000000
    36  H   -0.000006   0.000000   0.000000   0.000000   0.000027   0.000000
    37  H    0.000002  -0.000002   0.000000   0.000000   0.000752   0.000000
    38  H    0.000002   0.000008   0.000000   0.000000   0.000803  -0.000022
    39  H    0.397968   0.000000   0.000000   0.003042   0.000000   0.000000
    40  H    0.391821   0.000000   0.000000   0.000086   0.000000   0.000000
    41  H    0.392435   0.000000   0.000000   0.000000   0.000000   0.000000
             25         26         27         28         29         30
     1  N    0.000004  -0.000013   0.001763  -0.001040   0.008087   0.000153
     2  C   -0.000050  -0.000082  -0.040995  -0.042871  -0.008118   0.005555
     3  O    0.000000   0.000000   0.000433  -0.000089   0.001392   0.000658
     4  C   -0.005680  -0.002852  -0.000079   0.000030   0.000088   0.000003
     5  N    0.001652   0.001614  -0.003536  -0.000222   0.000671  -0.000074
     6  C    0.000723  -0.000105  -0.002701  -0.000018  -0.000015  -0.000003
     7  N   -0.000116   0.000169  -0.000098  -0.000001  -0.000179   0.000000
     8  C    0.000292   0.000010  -0.000244  -0.000003   0.000000   0.000000
     9  C   -0.003500  -0.003097   0.003143  -0.000367  -0.000001   0.000004
    10  C    0.000703  -0.000031   0.000135   0.000002   0.000000   0.000000
    11  C   -0.006173  -0.001714   0.000360  -0.000012  -0.000001   0.000000
    12  C   -0.001519   0.000390   0.000158   0.000000   0.000000   0.000000
    13  C    0.385568   0.373994   0.000001   0.000000   0.000000   0.000000
    14  C    0.000000   0.000001   0.402547   0.404218  -0.041041  -0.040523
    15  C    0.000000   0.000000  -0.039508  -0.036883   0.397819   0.396480
    16  C    0.000000   0.000000  -0.008388   0.004659  -0.032975  -0.038105
    17  C   -0.000002   0.000000   0.000000   0.000000   0.000000   0.000000
    18  C   -0.000075   0.000084  -0.000003   0.000000   0.000000   0.000000
    19  C   -0.000005   0.000000  -0.000019   0.000001   0.000000   0.000000
    20  S   -0.047604  -0.048285  -0.000002  -0.000004  -0.000001   0.000000
    21  H    0.000000   0.000000  -0.000047   0.000005  -0.000150   0.000041
    22  H    0.000013  -0.000001  -0.000138   0.000367   0.000001  -0.000001
    23  H   -0.000315  -0.001651   0.000020   0.000000   0.000000   0.000000
    24  H   -0.020133  -0.020234   0.000000   0.000000   0.000000   0.000000
    25  H    0.512026  -0.037593   0.000000   0.000000   0.000000   0.000000
    26  H   -0.037593   0.553661   0.000001   0.000000   0.000000   0.000000
    27  H    0.000000   0.000001   0.495226  -0.023195   0.003156   0.000231
    28  H    0.000000   0.000000  -0.023195   0.493577   0.000812  -0.004982
    29  H    0.000000   0.000000   0.003156   0.000812   0.457170  -0.017937
    30  H    0.000000   0.000000   0.000231  -0.004982  -0.017937   0.494900
    31  H    0.000000   0.000000   0.000095   0.000592   0.003337   0.002817
    32  H    0.000000   0.000000   0.000520  -0.000190  -0.004857   0.003138
    33  H    0.000000   0.000000   0.000000   0.000000   0.000000   0.000000
    34  H   -0.000003   0.000000   0.000000   0.000000   0.000000   0.000000
    35  H    0.000000   0.000000  -0.000001   0.000000   0.000000   0.000000
    36  H   -0.000002   0.000002   0.000000   0.000000   0.000000   0.000000
    37  H    0.000005  -0.000007  -0.000002   0.000000   0.000000   0.000000
    38  H    0.000026   0.000350   0.000000   0.000000   0.000000   0.000000
    39  H    0.000000   0.000000  -0.000005   0.000006   0.000000   0.000000
    40  H    0.000000   0.000000   0.000003   0.000000   0.000000   0.000000
    41  H   -0.000003   0.000000   0.000000   0.000000   0.000000   0.000000
             31         32         33         34         35         36
     1  N   -0.000002   0.000162   0.000000   0.000000   0.000000   0.000000
     2  C   -0.001126   0.001107   0.000000   0.000000   0.000000   0.000000
     3  O   -0.038980  -0.038063   0.000000   0.000000   0.000000   0.000000
     4  C   -0.000016   0.000008   0.000000   0.000000   0.000000   0.000000
     5  N   -0.000034  -0.000037   0.000000   0.000000   0.000000   0.000001
     6  C   -0.000066  -0.000001  -0.000026   0.000005  -0.000071  -0.000023
     7  N    0.000001  -0.000003   0.000000   0.000000   0.000000   0.000000
     8  C   -0.000026   0.000000   0.003116  -0.003874  -0.003925   0.000283
     9  C    0.000381   0.000014  -0.000032   0.000012   0.000034  -0.000001
    10  C   -0.000003   0.000000  -0.046404  -0.042246  -0.041570  -0.003108
    11  C    0.001195  -0.000003   0.000321  -0.000078  -0.000120   0.003939
    12  C    0.000073   0.000000  -0.002066   0.000305   0.000614  -0.049491
    13  C    0.000000   0.000000   0.000000   0.000000   0.000000   0.000001
    14  C   -0.002576   0.001626   0.000000   0.000000   0.000000   0.000000
    15  C   -0.062871  -0.042899   0.000000   0.000000   0.000000   0.000000
    16  C    0.403676   0.400345   0.000000   0.000000   0.000000   0.000000
    17  C    0.000000   0.000000   0.403288   0.391245   0.390598  -0.009799
    18  C   -0.000006   0.000000  -0.009332   0.000491   0.000522   0.405129
    19  C    0.000000   0.000000   0.000111   0.000057   0.000085  -0.000006
    20  S    0.000000   0.000000   0.000000   0.000000   0.000000   0.000000
    21  H   -0.003230  -0.003245   0.000000   0.000000   0.000000   0.000000
    22  H    0.000001   0.000000   0.000002   0.000000   0.000000   0.000000
    23  H    0.000094   0.000000  -0.000006   0.000002   0.000002   0.000027
    24  H    0.000000   0.000000   0.000000   0.000000   0.000000   0.000000
    25  H    0.000000   0.000000   0.000000  -0.000003   0.000000  -0.000002
    26  H    0.000000   0.000000   0.000000   0.000000   0.000000   0.000002
    27  H    0.000095   0.000520   0.000000   0.000000  -0.000001   0.000000
    28  H    0.000592  -0.000190   0.000000   0.000000   0.000000   0.000000
    29  H    0.003337  -0.004857   0.000000   0.000000   0.000000   0.000000
    30  H    0.002817   0.003138   0.000000   0.000000   0.000000   0.000000
    31  H    0.603608  -0.041470   0.000000   0.000000   0.000000   0.000000
    32  H   -0.041470   0.565778   0.000000   0.000000   0.000000   0.000000
    33  H    0.000000   0.000000   0.518456  -0.023055  -0.022938  -0.002549
    34  H    0.000000   0.000000  -0.023055   0.516230  -0.027451   0.000109
    35  H    0.000000   0.000000  -0.022938  -0.027451   0.515613   0.000091
    36  H    0.000000   0.000000  -0.002549   0.000109   0.000091   0.527206
    37  H   -0.000002   0.000000   0.000058  -0.000025   0.000043  -0.023110
    38  H    0.000000   0.000000   0.000063   0.000045  -0.000025  -0.023241
    39  H    0.000000   0.000000   0.000000  -0.000004  -0.000001   0.000000
    40  H    0.000000   0.000000   0.000008  -0.000834   0.002377   0.000000
    41  H    0.000000   0.000000   0.000007   0.002407  -0.000863   0.000000
             37         38         39         40         41
     1  N    0.000000   0.000000   0.000000   0.000000   0.000000
     2  C   -0.000001   0.000000  -0.000002   0.000000   0.000000
     3  O    0.000000   0.000000   0.000000   0.000000   0.000000
     4  C    0.000001  -0.000003   0.000000   0.000000   0.000000
     5  N    0.000002   0.000001  -0.000007   0.000002   0.000001
     6  C    0.000001   0.000022  -0.002291   0.000254   0.000085
     7  N    0.000000   0.000000   0.000000   0.000000   0.000000
     8  C   -0.000087  -0.000100  -0.045456  -0.042168  -0.041785
     9  C    0.000095  -0.000122   0.000339  -0.000053  -0.000049
    10  C    0.000586   0.000666   0.003718  -0.004858  -0.005066
    11  C   -0.004096  -0.004996  -0.000011   0.000010   0.000003
    12  C   -0.040946  -0.040753  -0.000056  -0.000017   0.000000
    13  C   -0.000010   0.000278   0.000000   0.000000   0.000000
    14  C    0.000000   0.000000  -0.000002   0.000002   0.000000
    15  C    0.000000   0.000000   0.000000   0.000000   0.000000
    16  C    0.000001   0.000000   0.000000   0.000000   0.000000
    17  C    0.000471   0.000514   0.000120  -0.000057  -0.000038
    18  C    0.391461   0.390171   0.000001   0.000001   0.000001
    19  C    0.000002   0.000002   0.397968   0.391821   0.392435
    20  S   -0.000002   0.000008   0.000000   0.000000   0.000000
    21  H    0.000000   0.000000   0.000000   0.000000   0.000000
    22  H    0.000000   0.000000   0.003042   0.000086   0.000000
    23  H    0.000752   0.000803   0.000000   0.000000   0.000000
    24  H    0.000000  -0.000022   0.000000   0.000000   0.000000
    25  H    0.000005   0.000026   0.000000   0.000000  -0.000003
    26  H   -0.000007   0.000350   0.000000   0.000000   0.000000
    27  H   -0.000002   0.000000  -0.000005   0.000003   0.000000
    28  H    0.000000   0.000000   0.000006   0.000000   0.000000
    29  H    0.000000   0.000000   0.000000   0.000000   0.000000
    30  H    0.000000   0.000000   0.000000   0.000000   0.000000
    31  H   -0.000002   0.000000   0.000000   0.000000   0.000000
    32  H    0.000000   0.000000   0.000000   0.000000   0.000000
    33  H    0.000058   0.000063   0.000000   0.000008   0.000007
    34  H   -0.000025   0.000045  -0.000004  -0.000834   0.002407
    35  H    0.000043  -0.000025  -0.000001   0.002377  -0.000863
    36  H   -0.023110  -0.023241   0.000000   0.000000   0.000000
    37  H    0.516732  -0.026317   0.000000   0.000000   0.000000
    38  H   -0.026317   0.521095   0.000000   0.000000   0.000000
    39  H    0.000000   0.000000   0.504775  -0.022255  -0.022184
    40  H    0.000000   0.000000  -0.022255   0.521167  -0.028594
    41  H    0.000000   0.000000  -0.022184  -0.028594   0.520158
 Mulliken atomic charges:
              1
     1  N   -0.409573
     2  C    0.487339
     3  O   -0.753500
     4  C    0.290097
     5  N   -0.627751
     6  C   -0.243257
     7  N   -0.345185
     8  C    0.036466
     9  C    0.224858
    10  C   -0.023875
    11  C   -0.246887
    12  C    0.018711
    13  C   -0.674537
    14  C   -0.382069
    15  C   -0.358108
    16  C    0.012926
    17  C   -0.507254
    18  C   -0.508348
    19  C   -0.511233
    20  S    0.232682
    21  H    0.434558
    22  H    0.220411
    23  H    0.221376
    24  H    0.221239
    25  H    0.221762
    26  H    0.185390
    27  H    0.211168
    28  H    0.205610
    29  H    0.232741
    30  H    0.197645
    31  H    0.134536
    32  H    0.158071
    33  H    0.180979
    34  H    0.186661
    35  H    0.186986
    36  H    0.174543
    37  H    0.184393
    38  H    0.181534
    39  H    0.182305
    40  H    0.183106
    41  H    0.183485
 Sum of Mulliken atomic charges =   0.00000
 Mulliken charges with hydrogens summed into heavy atoms:
              1
     1  N   -0.409573
     2  C    0.487339
     3  O   -0.318942
     4  C    0.290097
     5  N   -0.627751
     6  C   -0.022846
     7  N   -0.345185
     8  C    0.036466
     9  C    0.224858
    10  C   -0.023875
    11  C   -0.025511
    12  C    0.018711
    13  C   -0.046146
    14  C    0.034709
    15  C    0.072278
    16  C    0.305533
    17  C    0.047372
    18  C    0.032122
    19  C    0.037663
    20  S    0.232682
 Sum of Mulliken charges with hydrogens summed into heavy atoms =   0.00000
 DipInt: DoE/N= T F RetVal/Mat= T F Init=T NMatP=  1 IDeriv=0 Min/MaxMlt=  0  4
 Entering OneElI...
 OneElI was handed  2147175425 working-precision words.
 Multipole integrals L=0 to 4 MinM= 0 MaxM= 0.
 Requested accuracy = 0.1000D-12
 PrsmSu:  NPrtUS=   1 ThrOK=F IAlg=1
 PRISM was handed  2146651324 working-precision words and  6261 shell-pairs
 IPart=  0 NShTot=        6261 NBatch=          55 AvBLen=       113.8
 Electronic moments (au):
       -156.00000000          3.27202382         -1.39735179          0.88724358
      -3196.33300651      -2423.27186550       -921.37555170          4.83330549
         -2.85342839          2.71199024      -1340.68150038      -2646.44084687
        -12.08412831       3084.62713893       6946.55351501       -593.69873724
      -1902.25121200       1481.32919196      -1441.30311470      -2153.08288472
    -123150.97226098     -84760.79964912     -17196.48903751       2518.32087339
       2942.62059808     -16959.25227953       3097.33471220       1522.37655141
      -1550.34785796     -47752.96427019     -22289.29765757     -10587.30237698
       5500.83687971       7405.74386782        990.26213127
 Electronic spatial extent (au):  <R**2>=           6540.9804
 DipInt: DoE/N= F T RetVal/Mat= T F Init=T NMatP=  1 IDeriv=0 Min/MaxMlt=  0  4
 Nuclear    moments (au):
        156.00000000          0.00000000          0.00000000          0.00000000
[...]
 9798 Fit       0.007882
 9799 Fit       0.006411
 9800 Fit       0.004379
 9801 Fit       0.010752
 9802 Fit       0.010812
 9803 Fit       0.010864
 9804 Fit       0.010865
 9805 Fit       0.010773
 9806 Fit       0.010548
 9807 Fit       0.010148
 9808 Fit       0.009525
 9809 Fit       0.008617
 9810 Fit       0.007342
 9811 Fit       0.005576
 9812 Fit       0.010757
 9813 Fit       0.010993
 9814 Fit       0.011100
 9815 Fit       0.011156
 9816 Fit       0.011126
 9817 Fit       0.010973
 9818 Fit       0.010660
 9819 Fit       0.010145
 9820 Fit       0.009375
 9821 Fit       0.008274
 9822 Fit       0.006737
 9823 Fit       0.004605
 9824 Fit       0.010801
 9825 Fit       0.010878
 9826 Fit       0.011235
 9827 Fit       0.011393
 9828 Fit       0.011503
 9829 Fit       0.011528
 9830 Fit       0.011435
 9831 Fit       0.011186
 9832 Fit       0.010742
 9833 Fit       0.010047
 9834 Fit       0.009023
 9835 Fit       0.007557
 9836 Fit       0.010954
 9837 Fit       0.011072
 9838 Fit       0.011531
 9839 Fit       0.011744
 9840 Fit       0.011919
 9841 Fit       0.012019
 9842 Fit       0.012013
 9843 Fit       0.011871
 9844 Fit       0.011554
 9845 Fit       0.011008
 9846 Fit       0.011184
 9847 Fit       0.011325
 9848 Fit       0.011891
 9849 Fit       0.012168
 9850 Fit       0.012434
 9851 Fit       0.012660
 9852 Fit       0.012829
 9853 Fit       0.012931
 9854 Fit       0.011496
 9855 Fit       0.011646
 9856 Fit       0.012343
 9857 Fit       0.012736
 9858 Fit       0.013179
 9859 Fit       0.013668
 9860 Fit       0.011893
 9861 Fit       0.012036
 9862 Fit       0.012933
 9863 Fit       0.013533
 9864 Fit       0.012530
 9865 Fit       0.010278
 9866 Fit       0.010742
 9867 Fit       0.011013
 9868 Fit       0.011160
 9869 Fit       0.011222
 9870 Fit       0.011224
 9871 Fit       0.011191
 9872 Fit       0.008876
 9873 Fit       0.009873
 9874 Fit       0.010501
 9875 Fit       0.010896
 9876 Fit       0.011132
 9877 Fit       0.011253
 9878 Fit       0.011286
 9879 Fit       0.011253
 9880 Fit       0.011176
 9881 Fit       0.011079
 9882 Fit       0.008230
 9883 Fit       0.009502
 9884 Fit       0.010325
 9885 Fit       0.010862
 9886 Fit       0.011206
 9887 Fit       0.011408
 9888 Fit       0.011499
 9889 Fit       0.011503
 9890 Fit       0.011438
 9891 Fit       0.011326
 9892 Fit       0.011190
 9893 Fit       0.011060
 9894 Fit       0.008429
 9895 Fit       0.009757
 9896 Fit       0.010617
 9897 Fit       0.011179
 9898 Fit       0.011539
 9899 Fit       0.011749
 9900 Fit       0.011842
 9901 Fit       0.011838
 9902 Fit       0.011758
 9903 Fit       0.011622
 9904 Fit       0.011453
 9905 Fit       0.011282
 9906 Fit       0.011151
 9907 Fit       0.010093
 9908 Fit       0.011014
 9909 Fit       0.011604
 9910 Fit       0.011976
 9911 Fit       0.012191
 9912 Fit       0.012285
 9913 Fit       0.012277
 9914 Fit       0.012186
 9915 Fit       0.012031
 9916 Fit       0.011834
 9917 Fit       0.011627
 9918 Fit       0.011454
 9919 Fit       0.011375
 9920 Fit       0.012471
 9921 Fit       0.012722
 9922 Fit       0.012853
 9923 Fit       0.012886
 9924 Fit       0.012837
 9925 Fit       0.012714
 9926 Fit       0.012531
 9927 Fit       0.012306
 9928 Fit       0.012069
 9929 Fit       0.011860
 9930 Fit       0.011739
 9931 Fit       0.012205
 9932 Fit       0.013882
 9933 Fit       0.013702
 9934 Fit       0.013495
 9935 Fit       0.013250
 9936 Fit       0.012971
 9937 Fit       0.012678
 9938 Fit       0.012409
 9939 Fit       0.012222
 9940 Fit       0.012749
 9941 Fit       0.014326
 9942 Fit       0.013897
 9943 Fit       0.013497
 9944 Fit       0.013138
 9945 Fit       0.012864
 9946 Fit       0.009801
 9947 Fit       0.009958
 9948 Fit       0.010180
 9949 Fit       0.010368
 9950 Fit       0.010486
 9951 Fit       0.009743
 9952 Fit       0.009943
 9953 Fit       0.010230
 9954 Fit       0.010514
 9955 Fit       0.010747
 9956 Fit       0.010911
 9957 Fit       0.011014
 9958 Fit       0.009626
 9959 Fit       0.009804
 9960 Fit       0.010123
 9961 Fit       0.010485
 9962 Fit       0.010830
 9963 Fit       0.011124
 9964 Fit       0.011357
 9965 Fit       0.011534
 9966 Fit       0.011673
 9967 Fit       0.009485
 9968 Fit       0.009618
 9969 Fit       0.009931
 9970 Fit       0.010327
 9971 Fit       0.010742
 9972 Fit       0.011134
 9973 Fit       0.011482
 9974 Fit       0.011783
 9975 Fit       0.012044
 9976 Fit       0.012281
 9977 Fit       0.012509
 9978 Fit       0.009300
 9979 Fit       0.009449
 9980 Fit       0.009796
 9981 Fit       0.010244
 9982 Fit       0.010725
 9983 Fit       0.011196
 9984 Fit       0.011632
 9985 Fit       0.012029
 9986 Fit       0.012397
 9987 Fit       0.012758
 9988 Fit       0.013138
 9989 Fit       0.013553
 9990 Fit       0.009025
 9991 Fit       0.009200
 9992 Fit       0.009576
 9993 Fit       0.010065
 9994 Fit       0.010600
 9995 Fit       0.011136
 9996 Fit       0.011647
 9997 Fit       0.012127
 9998 Fit       0.012586
 9999 Fit       0.013052
 **** Fit       0.013570
 **** Fit       0.014185
 **** Fit       0.008704
 **** Fit       0.009078
 **** Fit       0.009592
 **** Fit       0.010180
 **** Fit       0.010789
 **** Fit       0.011386
 **** Fit       0.011956
 **** Fit       0.012503
 **** Fit       0.013053
 **** Fit       0.013657
 **** Fit       0.014400
 **** Fit       0.008494
 **** Fit       0.009128
 **** Fit       0.009830
 **** Fit       0.010552
 **** Fit       0.011258
 **** Fit       0.011934
 **** Fit       0.012583
 **** Fit       0.013242
 **** Fit       0.013988
 **** Fit       0.007223
 **** Fit       0.008096
 **** Fit       0.008992
 **** Fit       0.009891
 **** Fit       0.010764
 **** Fit       0.011591
 **** Fit       0.012370
 **** Fit       0.013131
 **** Fit       0.013961
 **** Fit       0.007644
 **** Fit       0.008851
 **** Fit       0.009972
 **** Fit       0.011005
 **** Fit       0.011946
 **** Fit       0.012806
 **** Fit       0.007709
 **** Fit       0.009296
 **** Fit       0.010670
 **** Fit       0.009527
 **** Fit       0.009272
 **** Fit       0.009222
 **** Fit       0.009540
 **** Fit       0.009859
 **** Fit       0.009762
 **** Fit       0.009496
 **** Fit       0.009134
 **** Fit       0.008935
 **** Fit       0.008855
 **** Fit       0.009052
 **** Fit       0.009512
 **** Fit       0.010002
 **** Fit       0.010250
 **** Fit       0.010179
 **** Fit       0.009926
 **** Fit       0.009671
 **** Fit       0.009483
 **** Fit       0.009322
 **** Fit       0.008625
 **** Fit       0.008441
 **** Fit       0.008503
 **** Fit       0.008855
 **** Fit       0.009428
 **** Fit       0.010051
 **** Fit       0.010520
 **** Fit       0.010705
 **** Fit       0.010610
 **** Fit       0.010338
 **** Fit       0.010023
 **** Fit       0.009771
 **** Fit       0.009620
 **** Fit       0.007964
 **** Fit       0.007918
 **** Fit       0.008198
 **** Fit       0.008778
 **** Fit       0.009553
 **** Fit       0.010340
 **** Fit       0.010944
 **** Fit       0.011236
 **** Fit       0.011207
 **** Fit       0.010941
 **** Fit       0.010557
 **** Fit       0.010174
 **** Fit       0.009882
 **** Fit       0.009728
 **** Fit       0.007228
 **** Fit       0.007493
 **** Fit       0.008138
 **** Fit       0.009085
 **** Fit       0.010165
 **** Fit       0.011136
 **** Fit       0.011781
 **** Fit       0.012007
 **** Fit       0.011863
 **** Fit       0.011469
 **** Fit       0.010961
 **** Fit       0.010458
 **** Fit       0.010056
 **** Fit       0.009825
 **** Fit       0.006366
 **** Fit       0.006588
 **** Fit       0.007278
 **** Fit       0.008405
 **** Fit       0.009829
 **** Fit       0.011278
 **** Fit       0.012428
 **** Fit       0.013047
 **** Fit       0.013109
 **** Fit       0.012752
 **** Fit       0.012156
 **** Fit       0.011473
 **** Fit       0.010817
 **** Fit       0.010277
 **** Fit       0.009927
 **** Fit       0.005753
 **** Fit       0.006875
 **** Fit       0.008645
 **** Fit       0.013990
 **** Fit       0.012997
 **** Fit       0.012004
 **** Fit       0.011116
 **** Fit       0.010410
 **** Fit       0.009960
 **** Fit       0.004844
 **** Fit       0.012659
 **** Fit       0.011472
 **** Fit       0.010565
 **** Fit       0.012416
 **** Fit       0.009504
 **** Fit       0.009149
 **** Fit       0.008675
 **** Fit       0.008343
 **** Fit       0.009925
 **** Fit       0.009606
 **** Fit       0.009129
 **** Fit       0.008557
 **** Fit       0.008034
 **** Fit       0.010083
 **** Fit       0.010421
 **** Fit       0.010104
 **** Fit       0.009635
 **** Fit       0.009031
 **** Fit       0.008346
 **** Fit       0.007681
 **** Fit       0.007206
 **** Fit       0.010657
 **** Fit       0.010596
 **** Fit       0.010964
 **** Fit       0.010618
 **** Fit       0.010134
 **** Fit       0.009508
 **** Fit       0.008762
 **** Fit       0.007941
 **** Fit       0.007137
 **** Fit       0.006498
 **** Fit       0.011333
 **** Fit       0.011293
 **** Fit       0.011182
 **** Fit       0.011538
 **** Fit       0.011146
 **** Fit       0.010639
 **** Fit       0.010005
 **** Fit       0.009244
 **** Fit       0.008369
 **** Fit       0.007423
 **** Fit       0.006481
 **** Fit       0.005670
 **** Fit       0.012152
 **** Fit       0.012027
 **** Fit       0.011828
 **** Fit       0.012138
 **** Fit       0.011647
 **** Fit       0.011062
 **** Fit       0.010359
 **** Fit       0.009523
 **** Fit       0.008553
 **** Fit       0.007469
 **** Fit       0.006319
 **** Fit       0.005196
 **** Fit       0.004258
 **** Fit       0.013187
 **** Fit       0.012909
 **** Fit       0.012557
 **** Fit       0.012764
 **** Fit       0.012141
 **** Fit       0.011467
 **** Fit       0.010697
 **** Fit       0.009798
 **** Fit       0.008753
 **** Fit       0.007564
 **** Fit       0.006256
 **** Fit       0.004885
 **** Fit       0.003558
 **** Fit       0.013973
 **** Fit       0.013371
 **** Fit       0.013400
 **** Fit       0.012596
 **** Fit       0.011804
 **** Fit       0.010941
 **** Fit       0.009948
 **** Fit       0.008792
 **** Fit       0.007463
 **** Fit       0.005970
 **** Fit       0.004350
 **** Fit       0.002678
 **** Fit       0.012931
 **** Fit       0.011988
 **** Fit       0.010984
 **** Fit       0.009816
 **** Fit       0.008435
 **** Fit       0.006822
 **** Fit       0.004986
 **** Fit       0.002957
 **** Fit       0.000815
 **** Fit       0.010854
 **** Fit       0.009440
 **** Fit       0.007708
 **** Fit       0.005648
 **** Fit       0.003270
 **** Fit       0.006728
 **** Fit       0.004058
 **** Fit       0.004112
 **** Fit       0.005198
 **** Fit       0.005223
 **** Fit       0.005797
 **** Fit       0.007153
 **** Fit       0.006217
 **** Fit       0.006200
 **** Fit       0.006565
 **** Fit       0.007423
 **** Fit       0.008880
 **** Fit       0.011115
 **** Fit       0.009995
 **** Fit       0.007266
 **** Fit       0.007001
 **** Fit       0.006963
 **** Fit       0.007194
 **** Fit       0.007746
 **** Fit       0.008655
 **** Fit       0.009890
 **** Fit       0.011273
 **** Fit       0.012311
 **** Fit       0.011385
 **** Fit       0.010459
 **** Fit       0.009685
 **** Fit       0.009158
 **** Fit       0.007716
 **** Fit       0.007563
 **** Fit       0.007599
 **** Fit       0.007864
 **** Fit       0.008384
 **** Fit       0.009143
 **** Fit       0.010046
 **** Fit       0.010887
 **** Fit       0.011413
 **** Fit       0.011474
 **** Fit       0.011115
 **** Fit       0.010519
 **** Fit       0.009880
 **** Fit       0.009346
 **** Fit       0.009016
 **** Fit       0.008261
 **** Fit       0.008085
 **** Fit       0.008011
 **** Fit       0.008093
 **** Fit       0.008363
 **** Fit       0.008822
 **** Fit       0.009417
 **** Fit       0.010019
 **** Fit       0.010446
 **** Fit       0.010562
 **** Fit       0.010360
 **** Fit       0.009957
 **** Fit       0.009509
 **** Fit       0.009147
 **** Fit       0.008952
 **** Fit       0.008605
 **** Fit       0.008474
 **** Fit       0.008375
 **** Fit       0.008367
 **** Fit       0.008504
 **** Fit       0.008806
 **** Fit       0.009232
 **** Fit       0.009664
 **** Fit       0.009939
 **** Fit       0.009949
 **** Fit       0.009723
 **** Fit       0.009394
 **** Fit       0.009105
 **** Fit       0.008940
 **** Fit       0.008888
 **** Fit       0.008672
 **** Fit       0.008613
 **** Fit       0.008658
 **** Fit       0.008868
 **** Fit       0.009205
 **** Fit       0.009502
 **** Fit       0.009567
 **** Fit       0.009386
 **** Fit       0.009126
 **** Fit       0.008943
 **** Fit       0.008843
 **** Fit       0.008761
 **** Fit       0.008823
 **** Fit       0.008879
 **** Fit       0.009132
 **** Fit       0.009272
 **** Fit       0.009106
 **** Fit       0.008917
 **** Fit       0.009027
 **** Fit       0.009300
 **** Fit       0.011151
 **** Fit       0.007634
 **** Fit       0.009017
 **** Fit       0.010382
 **** Fit       0.011709
 **** Fit       0.012972
 **** Fit       0.014134
 **** Fit       0.007615
 **** Fit       0.008547
 **** Fit       0.009558
 **** Fit       0.010589
 **** Fit       0.011589
 **** Fit       0.012510
 **** Fit       0.013304
 **** Fit       0.013915
 **** Fit       0.014282
 **** Fit       0.014353
 **** Fit       0.014122
 **** Fit       0.013655
 **** Fit       0.013105
 **** Fit       0.007938
 **** Fit       0.008532
 **** Fit       0.009290
 **** Fit       0.010121
 **** Fit       0.010950
 **** Fit       0.011715
 **** Fit       0.012364
 **** Fit       0.012851
 **** Fit       0.013135
 **** Fit       0.013193
 **** Fit       0.013029
 **** Fit       0.012697
 **** Fit       0.012296
 **** Fit       0.011965
 **** Fit       0.008393
 **** Fit       0.008868
 **** Fit       0.009509
 **** Fit       0.010211
 **** Fit       0.010891
 **** Fit       0.011485
 **** Fit       0.011942
 **** Fit       0.012226
 **** Fit       0.012315
 **** Fit       0.012215
 **** Fit       0.011964
 **** Fit       0.011638
 **** Fit       0.011340
 **** Fit       0.008653
 **** Fit       0.009059
 **** Fit       0.009605
 **** Fit       0.010188
 **** Fit       0.010728
 **** Fit       0.011163
 **** Fit       0.011452
 **** Fit       0.011573
 **** Fit       0.011526
 **** Fit       0.011340
 **** Fit       0.011070
 **** Fit       0.010799
 **** Fit       0.008887
 **** Fit       0.009301
 **** Fit       0.009799
 **** Fit       0.010272
 **** Fit       0.010645
 **** Fit       0.010868
 **** Fit       0.010921
 **** Fit       0.010817
 **** Fit       0.010602
 **** Fit       0.010349
 **** Fit       0.008845
 **** Fit       0.009072
 **** Fit       0.009456
 **** Fit       0.009852
 **** Fit       0.010160
 **** Fit       0.010319
 **** Fit       0.010315
 **** Fit       0.010174
 **** Fit       0.009963
 **** Fit       0.009107
 **** Fit       0.009411
 **** Fit       0.009681
 **** Fit       0.009815
 **** Fit       0.009786
 **** Fit       0.009642
 **** Fit       0.009074
 **** Fit       0.009271
 **** Fit       0.009408
 **** Fit       0.009383
 **** Fit       0.007618
 **** Fit       0.004482
 **** Fit       0.011207
 **** Fit       0.009086
 **** Fit       0.006805
 **** Fit       0.004277
 **** Fit       0.012527
 **** Fit       0.011029
 **** Fit       0.009383
 **** Fit       0.007563
 **** Fit       0.005538
 **** Fit       0.003280
 **** Fit       0.013558
 **** Fit       0.012842
 **** Fit       0.011917
 **** Fit       0.010815
 **** Fit       0.009547
 **** Fit       0.008112
 **** Fit       0.006508
 **** Fit       0.004739
 **** Fit       0.002828
 **** Fit       0.012799
 **** Fit       0.012504
 **** Fit       0.012009
 **** Fit       0.011325
 **** Fit       0.010467
 **** Fit       0.009447
 **** Fit       0.008274
 **** Fit       0.006959
 **** Fit       0.005527
 **** Fit       0.004024
 **** Fit       0.012727
 **** Fit       0.012829
 **** Fit       0.012893
 **** Fit       0.011904
 **** Fit       0.011676
 **** Fit       0.011276
 **** Fit       0.010702
 **** Fit       0.009960
 **** Fit       0.009060
 **** Fit       0.008020
 **** Fit       0.006868
 **** Fit       0.005653
 **** Fit       0.004462
 **** Fit       0.011981
 **** Fit       0.011972
 **** Fit       0.011983
 **** Fit       0.011176
 **** Fit       0.010976
 **** Fit       0.010622
 **** Fit       0.010102
 **** Fit       0.009421
 **** Fit       0.008595
 **** Fit       0.007655
 **** Fit       0.006654
 **** Fit       0.005682
 **** Fit       0.011351
 **** Fit       0.011275
 **** Fit       0.011254
 **** Fit       0.010546
 **** Fit       0.010359
 **** Fit       0.010034
 **** Fit       0.009560
 **** Fit       0.008944
 **** Fit       0.008211
 **** Fit       0.007411
 **** Fit       0.006631
 **** Fit       0.010681
 **** Fit       0.010631
 **** Fit       0.009989
 **** Fit       0.009789
 **** Fit       0.009453
 **** Fit       0.008974
 **** Fit       0.008375
 **** Fit       0.007717
 **** Fit       0.007108
 **** Fit       0.010095
 **** Fit       0.009510
 **** Fit       0.009291
 **** Fit       0.008949
 **** Fit       0.008493
 **** Fit       0.007985
 **** Fit       0.009646
 **** Fit       0.008887
 **** Fit       0.008547
 -----------------------------------------------------------------
 Leave Link  602 at Wed Jul  5 16:30:07 2023, MaxMem= 2147483648 cpu:       4.9

 Test job not archived.
 1\1\GINC-NODE543\FOpt\RHF\6-31G(d)\C15H21N3O1S1\TALAGAYEV\05-Jul-2023\
 0\\#HF/6-31G* SCF=tight Test Pop=MK iop(6/33=2) iop(6/42=6) fopt\\rema
 rk line goes here\\0,1\N,-65.2087735169,0.6659201391,-27.8265521214\C,
 -64.1303584374,0.3478273537,-28.4373415547\O,-62.9197051537,4.07092821
 62,-26.2466526373\C,-65.7556418816,-0.7358840755,-29.3406634095\N,-64.
 4068377899,-0.5566215395,-29.4322776908\C,-62.8850433876,-2.3668257809
 ,-30.0020775151\N,-66.2459838333,-0.0213329615,-28.3989760466\C,-61.99
 42574581,-2.9709077253,-30.8755181959\C,-63.4957423827,-1.1744688022,-
 30.3415104482\C,-61.7129689886,-2.3679936237,-32.1087415274\C,-63.2252
 846173,-0.5791569329,-31.5566402343\C,-62.3366480097,-1.163855533,-32.
 450898693\C,-68.3073161666,-1.575144777,-29.7345849748\C,-62.745269582
 9,0.8426652015,-28.1429560972\C,-62.6619654832,1.8486439023,-26.991782
 8972\C,-63.2761610797,3.2057779232,-27.2968150734\C,-60.738313882,-3.0
 463495565,-33.0484603875\C,-62.0796788847,-0.4695551804,-33.7723559091
 \C,-61.3426781488,-4.276802199,-30.4794107135\S,-66.6417475206,-1.8170
 232736,-30.4045480752\H,-63.4325650902,4.8641315411,-26.3033740191\H,-
 63.1122345726,-2.8236933209,-29.0560054472\H,-63.7159725328,0.34346621
 2,-31.8080598888\H,-68.9598714043,-2.2075782328,-30.3215906212\H,-68.6
 077924131,-0.5432002989,-29.8301493851\H,-68.3437957451,-1.8676608346,
 -28.6965838612\H,-62.3257986736,1.2738749521,-29.0485198222\H,-62.1223
 921042,-0.0163310679,-27.9102599126\H,-63.1312859304,1.4415708845,-26.
 1043846597\H,-61.6134206753,2.0061462117,-26.7589995761\H,-62.89036847
 62,3.5841200641,-28.2440549066\H,-64.3522410861,3.1205431564,-27.38061
 63947\H,-60.569569756,-2.4755000286,-33.94898767\H,-61.1016998538,-4.0
 256628592,-33.3461657427\H,-59.7744824256,-3.1948190245,-32.5713944618
 \H,-61.0358329135,-0.1948473811,-33.8861733091\H,-62.6662665473,0.4379
 0422,-33.8440515871\H,-62.3471672345,-1.0990760391,-34.6147765057\H,-6
 1.6887333117,-4.5994231849,-29.5053503748\H,-60.2616203776,-4.18609393
 11,-30.4330177179\H,-61.5695126705,-5.0667118136,-31.188719934\\Versio
 n=EM64L-G09RevA.02\State=1-A\HF=-1215.9507767\RMSD=3.408e-09\RMSF=4.05
 7e-06\Dipole=0.9879064,-0.8812822,-1.8646891\Quadrupole=2.2777968,5.02
 92025,-7.3069993,-3.2975235,-1.3846551,-5.7858539\PG=C01 [X(C15H21N3O1
 S1)]\\@


 NATURE GIVES TO EVERY TIME AND SEASON SOME BEAUTY OF ITS OWN.

                                                    --DICKENS
 Job cpu time:  0 days  6 hours 11 minutes 28.5 seconds.
 File lengths (MBytes):  RWF=     84 Int=      0 D2E=      0 Chk=      9 Scr=      1
 Normal termination of Gaussian 09 at Wed Jul  5 16:30:08 2023.
