 Entering Gaussian System, Link 0=g16
 Initial command:
 /afs/math/software/gaussian/g16.A03/g16/l1.exe "/net/beegfs/talagayev/fkbp/pdb-lig/GD0_true/Gau-18084.inp" -scrdir="/net/beegfs/talagayev/fkbp/pdb-lig/GD0_true/"
 Entering Link 1 = /afs/math/software/gaussian/g16.A03/g16/l1.exe PID=     18085.
  
 Copyright (c) 1988,1990,1992,1993,1995,1998,2003,2009,2016,
            Gaussian, Inc.  All Rights Reserved.
  
 This is part of the Gaussian(R) 16 program.  It is based on
 the Gaussian(R) 09 system (copyright 2009, Gaussian, Inc.),
 the Gaussian(R) 03 system (copyright 2003, Gaussian, Inc.),
 the Gaussian(R) 98 system (copyright 1998, Gaussian, Inc.),
 the Gaussian(R) 94 system (copyright 1995, Gaussian, Inc.),
 the Gaussian 92(TM) system (copyright 1992, Gaussian, Inc.),
 the Gaussian 90(TM) system (copyright 1990, Gaussian, Inc.),
 the Gaussian 88(TM) system (copyright 1988, Gaussian, Inc.),
 the Gaussian 86(TM) system (copyright 1986, Carnegie Mellon
 University), and the Gaussian 82(TM) system (copyright 1983,
 Carnegie Mellon University). Gaussian is a federally registered
 trademark of Gaussian, Inc.
  
 This software contains proprietary and confidential information,
 including trade secrets, belonging to Gaussian, Inc.
  
 This software is provided under written license and may be
 used, copied, transmitted, or stored only in accord with that
 written license.
  
 The following legend is applicable only to US Government
 contracts under FAR:
  
                    RESTRICTED RIGHTS LEGEND
  
 Use, reproduction and disclosure by the US Government is
 subject to restrictions as set forth in subparagraphs (a)
 and (c) of the Commercial Computer Software - Restricted
 Rights clause in FAR 52.227-19.
  
 Gaussian, Inc.
 340 Quinnipiac St., Bldg. 40, Wallingford CT 06492
  
  
 ---------------------------------------------------------------
 Warning -- This program may not be used in any manner that
 competes with the business of Gaussian, Inc. or will provide
 assistance to any competitor of Gaussian, Inc.  The licensee
 of this program is prohibited from giving any competitor of
 Gaussian, Inc. access to this program.  By using this program,
 the user acknowledges that Gaussian, Inc. is engaged in the
 business of creating and licensing software in the field of
 computational chemistry and represents and warrants to the
 licensee that it is not a competitor of Gaussian, Inc. and that
 it will not use this program in any manner prohibited above.
 ---------------------------------------------------------------
  

 Cite this work as:
 Gaussian 16, Revision A.03,
 M. J. Frisch, G. W. Trucks, H. B. Schlegel, G. E. Scuseria, 
 M. A. Robb, J. R. Cheeseman, G. Scalmani, V. Barone, 
 G. A. Petersson, H. Nakatsuji, X. Li, M. Caricato, A. V. Marenich, 
 J. Bloino, B. G. Janesko, R. Gomperts, B. Mennucci, H. P. Hratchian, 
 J. V. Ortiz, A. F. Izmaylov, J. L. Sonnenberg, D. Williams-Young, 
 F. Ding, F. Lipparini, F. Egidi, J. Goings, B. Peng, A. Petrone, 
 T. Henderson, D. Ranasinghe, V. G. Zakrzewski, J. Gao, N. Rega, 
 G. Zheng, W. Liang, M. Hada, M. Ehara, K. Toyota, R. Fukuda, 
 J. Hasegawa, M. Ishida, T. Nakajima, Y. Honda, O. Kitao, H. Nakai, 
 T. Vreven, K. Throssell, J. A. Montgomery, Jr., J. E. Peralta, 
 F. Ogliaro, M. J. Bearpark, J. J. Heyd, E. N. Brothers, K. N. Kudin, 
 V. N. Staroverov, T. A. Keith, R. Kobayashi, J. Normand, 
 K. Raghavachari, A. P. Rendell, J. C. Burant, S. S. Iyengar, 
 J. Tomasi, M. Cossi, J. M. Millam, M. Klene, C. Adamo, R. Cammi, 
 J. W. Ochterski, R. L. Martin, K. Morokuma, O. Farkas, 
 J. B. Foresman, and D. J. Fox, Gaussian, Inc., Wallingford CT, 2016.
 
 ******************************************
 Gaussian 16:  ES64L-G16RevA.03 25-Dec-2016
                17-Jun-2024 
 ******************************************
 %chk=molecule
 ---------------------------------------------------------------------
 # MP2 SCF=tight Test Pop=MK iop(6/33=2) iop(6/42=6) opt Pop=ReadRadii
 ---------------------------------------------------------------------
 1/18=20,19=15,38=1/1,3;
 2/9=110,12=2,17=6,18=5,40=1/2;
 3/11=9,25=1,30=1,71=1/1,2,3;
 4//1;
 5/5=2,32=2,38=5/2;
 8/6=4,10=1/1;
 9/15=2,16=-3/6;
 10/5=1/2;
 6/7=2,8=2,9=2,10=2,15=8,20=101,33=2,42=6/1,2;
 7/12=2/1,2,3,16;
 1/18=20,19=15/3(2);
 2/9=110/2;
 99//99;
 2/9=110/2;
 3/11=9,25=1,30=1,71=1/1,2,3;
 4/5=5,16=3,69=1/1;
 5/5=2,32=2,38=5/2;
 8/6=4,10=1/1;
 9/15=2,16=-3/6;
 10/5=1/2;
 7/12=2/1,2,3,16;
 1/18=20,19=15/3(-8);
 2/9=110/2;
 6/7=2,8=2,9=2,10=2,15=8,20=101,33=2,42=6/1,2;
 99//99;
 ---------------------
 remark line goes here
 ---------------------
 Symbolic Z-matrix:
 Charge =  0 Multiplicity = 1
 C                     62.579   -31.195    35.497 
 N                     60.093   -31.356    38.251 
 O                     57.519   -32.291    35.967 
 C                     64.592   -30.168    34.726 
 C                     62.617   -32.086    34.447 
 C                     64.647   -31.076    33.68 
 C                     63.66    -32.032    33.536 
 C                     61.449   -31.26     36.424 
 C                     61.388   -31.339    37.91 
 C                     59.393   -31.295    37.071 
 C                     59.663   -31.202    34.621 
 C                     59.356   -29.887    33.928 
 C                     60.632   -29.097    33.713 
 C                     58.745   -30.16     32.569 
 C                     57.909   -31.293    36.907 
 C                     56.125   -32.534    36.179 
 I                     63.008   -31.44     39.374 
 C                     55.738   -33.761    35.424 
 N                     60.177   -31.22     36.004 
 O                     58.41    -29.141    34.692 
 C                     63.548   -30.223    35.636 
 H                     65.362   -29.418    34.832 
 H                     61.837   -32.824    34.334 
 H                     65.464   -31.036    32.975 
 H                     63.701   -32.734    32.717 
 H                     60.404   -31.713    34.006 
 H                     58.736   -31.776    34.625 
 H                     61.333   -29.692    33.128 
 H                     61.077   -28.856    34.678 
 H                     60.403   -28.175    33.178 
 H                     59.448   -30.73     31.962 
 H                     58.522   -29.215    32.074 
 H                     57.825   -30.731    32.692 
 H                     57.587   -30.315    36.549 
 H                     57.44    -31.5      37.869 
 H                     55.935   -32.681    37.242 
 H                     55.545   -31.684    35.821 
 H                     56.32    -34.609    35.785 
 H                     55.934   -33.611    34.362 
 H                     54.677   -33.959    35.573 
 H                     57.613   -29.671    34.764 
 H                     63.494   -29.511    36.447 
 

 GradGradGradGradGradGradGradGradGradGradGradGradGradGradGradGradGradGrad
 Berny optimization.
 Initialization pass.
                           ----------------------------
                           !    Initial Parameters    !
                           ! (Angstroms and Degrees)  !
 --------------------------                            --------------------------
 ! Name  Definition              Value          Derivative Info.                !
 --------------------------------------------------------------------------------
 ! R1    R(1,5)                  1.3776         estimate D2E/DX2                !
 ! R2    R(1,8)                  1.463          estimate D2E/DX2                !
 ! R3    R(1,21)                 1.3795         estimate D2E/DX2                !
 ! R4    R(2,9)                  1.3393         estimate D2E/DX2                !
 ! R5    R(2,10)                 1.3734         estimate D2E/DX2                !
 ! R6    R(3,15)                 1.4254         estimate D2E/DX2                !
 ! R7    R(3,16)                 1.4308         estimate D2E/DX2                !
 ! R8    R(4,6)                  1.3862         estimate D2E/DX2                !
 ! R9    R(4,21)                 1.386          estimate D2E/DX2                !
 ! R10   R(4,22)                 1.0801         estimate D2E/DX2                !
 ! R11   R(5,7)                  1.3859         estimate D2E/DX2                !
 ! R12   R(5,23)                 1.0797         estimate D2E/DX2                !
 ! R13   R(6,7)                  1.3816         estimate D2E/DX2                !
 ! R14   R(6,24)                 1.0799         estimate D2E/DX2                !
 ! R15   R(7,25)                 1.0795         estimate D2E/DX2                !
 ! R16   R(8,9)                  1.4893         estimate D2E/DX2                !
 ! R17   R(8,19)                 1.3401         estimate D2E/DX2                !
 ! R18   R(9,17)                 2.1858         estimate D2E/DX2                !
 ! R19   R(10,15)                1.493          estimate D2E/DX2                !
 ! R20   R(10,19)                1.3262         estimate D2E/DX2                !
 ! R21   R(11,12)                1.5178         estimate D2E/DX2                !
 ! R22   R(11,19)                1.4755         estimate D2E/DX2                !
 ! R23   R(11,26)                1.0901         estimate D2E/DX2                !
 ! R24   R(11,27)                1.0903         estimate D2E/DX2                !
 ! R25   R(12,13)                1.5161         estimate D2E/DX2                !
 ! R26   R(12,14)                1.5148         estimate D2E/DX2                !
 ! R27   R(12,20)                1.4266         estimate D2E/DX2                !
 ! R28   R(13,28)                1.0898         estimate D2E/DX2                !
 ! R29   R(13,29)                1.0896         estimate D2E/DX2                !
 ! R30   R(13,30)                1.0903         estimate D2E/DX2                !
 ! R31   R(14,31)                1.0898         estimate D2E/DX2                !
 ! R32   R(14,32)                1.0899         estimate D2E/DX2                !
 ! R33   R(14,33)                1.0898         estimate D2E/DX2                !
 ! R34   R(15,34)                1.0901         estimate D2E/DX2                !
 ! R35   R(15,35)                1.0901         estimate D2E/DX2                !
 ! R36   R(16,18)                1.4918         estimate D2E/DX2                !
 ! R37   R(16,36)                1.0898         estimate D2E/DX2                !
 ! R38   R(16,37)                1.0895         estimate D2E/DX2                !
 ! R39   R(18,38)                1.09           estimate D2E/DX2                !
 ! R40   R(18,39)                1.0903         estimate D2E/DX2                !
 ! R41   R(18,40)                1.0896         estimate D2E/DX2                !
 ! R42   R(20,41)                0.9598         estimate D2E/DX2                !
 ! R43   R(21,42)                1.0805         estimate D2E/DX2                !
 ! A1    A(5,1,8)              118.3922         estimate D2E/DX2                !
 ! A2    A(5,1,21)             120.8727         estimate D2E/DX2                !
 ! A3    A(8,1,21)             120.6631         estimate D2E/DX2                !
 ! A4    A(9,2,10)             105.874          estimate D2E/DX2                !
 ! A5    A(15,3,16)            106.7245         estimate D2E/DX2                !
 ! A6    A(6,4,21)             119.9543         estimate D2E/DX2                !
 ! A7    A(6,4,22)             120.0394         estimate D2E/DX2                !
 ! A8    A(21,4,22)            120.0063         estimate D2E/DX2                !
 ! A9    A(1,5,7)              119.7736         estimate D2E/DX2                !
 ! A10   A(1,5,23)             120.1265         estimate D2E/DX2                !
 ! A11   A(7,5,23)             120.0999         estimate D2E/DX2                !
 ! A12   A(4,6,7)              120.2345         estimate D2E/DX2                !
 ! A13   A(4,6,24)             119.893          estimate D2E/DX2                !
 ! A14   A(7,6,24)             119.8725         estimate D2E/DX2                !
 ! A15   A(5,7,6)              119.7413         estimate D2E/DX2                !
 ! A16   A(5,7,25)             120.1308         estimate D2E/DX2                !
 ! A17   A(6,7,25)             120.1279         estimate D2E/DX2                !
 ! A18   A(1,8,9)              131.7732         estimate D2E/DX2                !
 ! A19   A(1,8,19)             122.2216         estimate D2E/DX2                !
 ! A20   A(9,8,19)             105.986          estimate D2E/DX2                !
 ! A21   A(2,9,8)              107.1171         estimate D2E/DX2                !
 ! A22   A(2,9,17)             123.0604         estimate D2E/DX2                !
 ! A23   A(8,9,17)             129.8183         estimate D2E/DX2                !
 ! A24   A(2,10,15)            126.9452         estimate D2E/DX2                !
 ! A25   A(2,10,19)            113.1088         estimate D2E/DX2                !
 ! A26   A(15,10,19)           119.9431         estimate D2E/DX2                !
 ! A27   A(12,11,19)           120.5956         estimate D2E/DX2                !
 ! A28   A(12,11,26)           106.6198         estimate D2E/DX2                !
 ! A29   A(12,11,27)           106.6074         estimate D2E/DX2                !
 ! A30   A(19,11,26)           106.6345         estimate D2E/DX2                !
 ! A31   A(19,11,27)           106.6369         estimate D2E/DX2                !
 ! A32   A(26,11,27)           109.4633         estimate D2E/DX2                !
 ! A33   A(11,12,13)           110.241          estimate D2E/DX2                !
 ! A34   A(11,12,14)           109.576          estimate D2E/DX2                !
 ! A35   A(11,12,20)           110.0393         estimate D2E/DX2                !
 ! A36   A(13,12,14)           107.8277         estimate D2E/DX2                !
 ! A37   A(13,12,20)           111.1969         estimate D2E/DX2                !
 ! A38   A(14,12,20)           107.8922         estimate D2E/DX2                !
 ! A39   A(12,13,28)           109.4514         estimate D2E/DX2                !
 ! A40   A(12,13,29)           109.4738         estimate D2E/DX2                !
 ! A41   A(12,13,30)           109.4789         estimate D2E/DX2                !
 ! A42   A(28,13,29)           109.4786         estimate D2E/DX2                !
 ! A43   A(28,13,30)           109.4752         estimate D2E/DX2                !
 ! A44   A(29,13,30)           109.4694         estimate D2E/DX2                !
 ! A45   A(12,14,31)           109.4979         estimate D2E/DX2                !
 ! A46   A(12,14,32)           109.4954         estimate D2E/DX2                !
 ! A47   A(12,14,33)           109.4925         estimate D2E/DX2                !
 ! A48   A(31,14,32)           109.4234         estimate D2E/DX2                !
 ! A49   A(31,14,33)           109.4762         estimate D2E/DX2                !
 ! A50   A(32,14,33)           109.442          estimate D2E/DX2                !
 ! A51   A(3,15,10)            110.0876         estimate D2E/DX2                !
 ! A52   A(3,15,34)            109.3151         estimate D2E/DX2                !
 ! A53   A(3,15,35)            109.3486         estimate D2E/DX2                !
 ! A54   A(10,15,34)           109.3217         estimate D2E/DX2                !
 ! A55   A(10,15,35)           109.2962         estimate D2E/DX2                !
 ! A56   A(34,15,35)           109.4572         estimate D2E/DX2                !
 ! A57   A(3,16,18)            108.509          estimate D2E/DX2                !
 ! A58   A(3,16,36)            109.7117         estimate D2E/DX2                !
 ! A59   A(3,16,37)            109.7224         estimate D2E/DX2                !
 ! A60   A(18,16,36)           109.7241         estimate D2E/DX2                !
 ! A61   A(18,16,37)           109.7119         estimate D2E/DX2                !
 ! A62   A(36,16,37)           109.4463         estimate D2E/DX2                !
 ! A63   A(16,18,38)           109.4971         estimate D2E/DX2                !
 ! A64   A(16,18,39)           109.462          estimate D2E/DX2                !
 ! A65   A(16,18,40)           109.4442         estimate D2E/DX2                !
 ! A66   A(38,18,39)           109.4896         estimate D2E/DX2                !
 ! A67   A(38,18,40)           109.4676         estimate D2E/DX2                !
 ! A68   A(39,18,40)           109.4668         estimate D2E/DX2                !
 ! A69   A(8,19,10)            107.8949         estimate D2E/DX2                !
 ! A70   A(8,19,11)            128.6634         estimate D2E/DX2                !
 ! A71   A(10,19,11)           123.289          estimate D2E/DX2                !
 ! A72   A(12,20,41)           107.5806         estimate D2E/DX2                !
 ! A73   A(1,21,4)             119.3992         estimate D2E/DX2                !
 ! A74   A(1,21,42)            120.3179         estimate D2E/DX2                !
 ! A75   A(4,21,42)            120.2829         estimate D2E/DX2                !
 ! D1    D(8,1,5,7)            178.684          estimate D2E/DX2                !
 ! D2    D(8,1,5,23)            -1.3188         estimate D2E/DX2                !
 ! D3    D(21,1,5,7)             1.7492         estimate D2E/DX2                !
 ! D4    D(21,1,5,23)         -178.2536         estimate D2E/DX2                !
 ! D5    D(5,1,8,9)            128.7351         estimate D2E/DX2                !
 ! D6    D(5,1,8,19)           -53.0934         estimate D2E/DX2                !
 ! D7    D(21,1,8,9)           -54.3234         estimate D2E/DX2                !
 ! D8    D(21,1,8,19)          123.8481         estimate D2E/DX2                !
 ! D9    D(5,1,21,4)            -1.7651         estimate D2E/DX2                !
 ! D10   D(5,1,21,42)          178.2504         estimate D2E/DX2                !
 ! D11   D(8,1,21,4)          -178.6303         estimate D2E/DX2                !
 ! D12   D(8,1,21,42)            1.3853         estimate D2E/DX2                !
 ! D13   D(10,2,9,8)             0.1036         estimate D2E/DX2                !
 ! D14   D(10,2,9,17)         -179.219          estimate D2E/DX2                !
 ! D15   D(9,2,10,15)          179.6615         estimate D2E/DX2                !
 ! D16   D(9,2,10,19)           -0.9587         estimate D2E/DX2                !
 ! D17   D(16,3,15,10)         161.5148         estimate D2E/DX2                !
 ! D18   D(16,3,15,34)         -78.3866         estimate D2E/DX2                !
 ! D19   D(16,3,15,35)          41.4266         estimate D2E/DX2                !
 ! D20   D(15,3,16,18)        -168.3026         estimate D2E/DX2                !
 ! D21   D(15,3,16,36)         -48.4351         estimate D2E/DX2                !
 ! D22   D(15,3,16,37)          71.8383         estimate D2E/DX2                !
 ! D23   D(21,4,6,7)             0.3787         estimate D2E/DX2                !
 ! D24   D(21,4,6,24)         -179.634          estimate D2E/DX2                !
 ! D25   D(22,4,6,7)          -179.616          estimate D2E/DX2                !
 ! D26   D(22,4,6,24)            0.3713         estimate D2E/DX2                !
 ! D27   D(6,4,21,1)             0.6931         estimate D2E/DX2                !
 ! D28   D(6,4,21,42)         -179.3224         estimate D2E/DX2                !
 ! D29   D(22,4,21,1)         -179.3122         estimate D2E/DX2                !
 ! D30   D(22,4,21,42)           0.6723         estimate D2E/DX2                !
 ! D31   D(1,5,7,6)             -0.6525         estimate D2E/DX2                !
 ! D32   D(1,5,7,25)           179.359          estimate D2E/DX2                !
 ! D33   D(23,5,7,6)           179.3503         estimate D2E/DX2                !
 ! D34   D(23,5,7,25)           -0.6382         estimate D2E/DX2                !
 ! D35   D(4,6,7,5)             -0.4003         estimate D2E/DX2                !
 ! D36   D(4,6,7,25)           179.5882         estimate D2E/DX2                !
 ! D37   D(24,6,7,5)           179.6124         estimate D2E/DX2                !
 ! D38   D(24,6,7,25)           -0.3991         estimate D2E/DX2                !
 ! D39   D(1,8,9,2)            179.1253         estimate D2E/DX2                !
 ! D40   D(1,8,9,17)            -1.6139         estimate D2E/DX2                !
 ! D41   D(19,8,9,2)             0.7344         estimate D2E/DX2                !
 ! D42   D(19,8,9,17)          179.9952         estimate D2E/DX2                !
 ! D43   D(1,8,19,10)         -179.87           estimate D2E/DX2                !
 ! D44   D(1,8,19,11)            4.5655         estimate D2E/DX2                !
 ! D45   D(9,8,19,10)           -1.2884         estimate D2E/DX2                !
 ! D46   D(9,8,19,11)         -176.853          estimate D2E/DX2                !
 ! D47   D(2,10,15,3)         -128.6263         estimate D2E/DX2                !
 ! D48   D(2,10,15,34)         111.279          estimate D2E/DX2                !
 ! D49   D(2,10,15,35)          -8.5064         estimate D2E/DX2                !
 ! D50   D(19,10,15,3)          52.0319         estimate D2E/DX2                !
 ! D51   D(19,10,15,34)        -68.0627         estimate D2E/DX2                !
 ! D52   D(19,10,15,35)        172.1518         estimate D2E/DX2                !
 ! D53   D(2,10,19,8)            1.4625         estimate D2E/DX2                !
 ! D54   D(2,10,19,11)         177.3198         estimate D2E/DX2                !
 ! D55   D(15,10,19,8)        -179.1095         estimate D2E/DX2                !
 ! D56   D(15,10,19,11)         -3.2522         estimate D2E/DX2                !
 ! D57   D(19,11,12,13)         65.8828         estimate D2E/DX2                !
 ! D58   D(19,11,12,14)       -175.598          estimate D2E/DX2                !
 ! D59   D(19,11,12,20)        -57.1216         estimate D2E/DX2                !
 ! D60   D(26,11,12,13)        -55.6884         estimate D2E/DX2                !
 ! D61   D(26,11,12,14)         62.8308         estimate D2E/DX2                !
 ! D62   D(26,11,12,20)       -178.6928         estimate D2E/DX2                !
 ! D63   D(27,11,12,13)       -172.5535         estimate D2E/DX2                !
 ! D64   D(27,11,12,14)        -54.0344         estimate D2E/DX2                !
 ! D65   D(27,11,12,20)         64.442          estimate D2E/DX2                !
 ! D66   D(12,11,19,8)         -93.6641         estimate D2E/DX2                !
 ! D67   D(12,11,19,10)         91.3868         estimate D2E/DX2                !
 ! D68   D(26,11,19,8)          27.8999         estimate D2E/DX2                !
 ! D69   D(26,11,19,10)       -147.0491         estimate D2E/DX2                !
 ! D70   D(27,11,19,8)         144.7865         estimate D2E/DX2                !
 ! D71   D(27,11,19,10)        -30.1625         estimate D2E/DX2                !
 ! D72   D(11,12,13,28)         57.661          estimate D2E/DX2                !
 ! D73   D(11,12,13,29)        -62.3376         estimate D2E/DX2                !
 ! D74   D(11,12,13,30)        177.6584         estimate D2E/DX2                !
 ! D75   D(14,12,13,28)        -61.9236         estimate D2E/DX2                !
 ! D76   D(14,12,13,29)        178.0778         estimate D2E/DX2                !
 ! D77   D(14,12,13,30)         58.0738         estimate D2E/DX2                !
 ! D78   D(20,12,13,28)        179.9861         estimate D2E/DX2                !
 ! D79   D(20,12,13,29)         59.9875         estimate D2E/DX2                !
 ! D80   D(20,12,13,30)        -60.0165         estimate D2E/DX2                !
 ! D81   D(11,12,14,31)        -60.2174         estimate D2E/DX2                !
 ! D82   D(11,12,14,32)        179.8101         estimate D2E/DX2                !
 ! D83   D(11,12,14,33)         59.8181         estimate D2E/DX2                !
 ! D84   D(13,12,14,31)         59.7879         estimate D2E/DX2                !
 ! D85   D(13,12,14,32)        -60.1847         estimate D2E/DX2                !
 ! D86   D(13,12,14,33)        179.8233         estimate D2E/DX2                !
 ! D87   D(20,12,14,31)        179.9825         estimate D2E/DX2                !
 ! D88   D(20,12,14,32)         60.01           estimate D2E/DX2                !
 ! D89   D(20,12,14,33)        -59.982          estimate D2E/DX2                !
 ! D90   D(11,12,20,41)        -59.97           estimate D2E/DX2                !
 ! D91   D(13,12,20,41)        177.5883         estimate D2E/DX2                !
 ! D92   D(14,12,20,41)         59.537          estimate D2E/DX2                !
 ! D93   D(3,16,18,38)          60.1476         estimate D2E/DX2                !
 ! D94   D(3,16,18,39)         -59.8851         estimate D2E/DX2                !
 ! D95   D(3,16,18,40)        -179.8575         estimate D2E/DX2                !
 ! D96   D(36,16,18,38)        -59.7122         estimate D2E/DX2                !
 ! D97   D(36,16,18,39)       -179.7449         estimate D2E/DX2                !
 ! D98   D(36,16,18,40)         60.2827         estimate D2E/DX2                !
 ! D99   D(37,16,18,38)       -179.9868         estimate D2E/DX2                !
 ! D100  D(37,16,18,39)         59.9805         estimate D2E/DX2                !
 ! D101  D(37,16,18,40)        -59.9919         estimate D2E/DX2                !
 --------------------------------------------------------------------------------
 Trust Radius=3.00D-01 FncErr=1.00D-07 GrdErr=1.00D-07 EigMax=2.50D+02 EigMin=1.00D-04
 Number of steps in this run=    229 maximum allowed number of steps=    252.
 GradGradGradGradGradGradGradGradGradGradGradGradGradGradGradGradGradGrad

                          Input orientation:                          
 ---------------------------------------------------------------------
 Center     Atomic      Atomic             Coordinates (Angstroms)
 Number     Number       Type             X           Y           Z
 ---------------------------------------------------------------------
      1          6           0       62.579000  -31.195000   35.497000
      2          7           0       60.093000  -31.356000   38.251000
      3          8           0       57.519000  -32.291000   35.967000
      4          6           0       64.592000  -30.168000   34.726000
      5          6           0       62.617000  -32.086000   34.447000
      6          6           0       64.647000  -31.076000   33.680000
      7          6           0       63.660000  -32.032000   33.536000
      8          6           0       61.449000  -31.260000   36.424000
      9          6           0       61.388000  -31.339000   37.910000
     10          6           0       59.393000  -31.295000   37.071000
     11          6           0       59.663000  -31.202000   34.621000
     12          6           0       59.356000  -29.887000   33.928000
     13          6           0       60.632000  -29.097000   33.713000
     14          6           0       58.745000  -30.160000   32.569000
     15          6           0       57.909000  -31.293000   36.907000
     16          6           0       56.125000  -32.534000   36.179000
     17         53           0       63.008000  -31.440000   39.374000
     18          6           0       55.738000  -33.761000   35.424000
     19          7           0       60.177000  -31.220000   36.004000
     20          8           0       58.410000  -29.141000   34.692000
     21          6           0       63.548000  -30.223000   35.636000
     22          1           0       65.362000  -29.418000   34.832000
     23          1           0       61.837000  -32.824000   34.334000
     24          1           0       65.464000  -31.036000   32.975000
     25          1           0       63.701000  -32.734000   32.717000
     26          1           0       60.404000  -31.713000   34.006000
     27          1           0       58.736000  -31.776000   34.625000
     28          1           0       61.333000  -29.692000   33.128000
     29          1           0       61.077000  -28.856000   34.678000
     30          1           0       60.403000  -28.175000   33.178000
     31          1           0       59.448000  -30.730000   31.962000
     32          1           0       58.522000  -29.215000   32.074000
     33          1           0       57.825000  -30.731000   32.692000
     34          1           0       57.587000  -30.315000   36.549000
     35          1           0       57.440000  -31.500000   37.869000
     36          1           0       55.935000  -32.681000   37.242000
     37          1           0       55.545000  -31.684000   35.821000
     38          1           0       56.320000  -34.609000   35.785000
     39          1           0       55.934000  -33.611000   34.362000
     40          1           0       54.677000  -33.959000   35.573000
     41          1           0       57.613000  -29.671000   34.764000
     42          1           0       63.494000  -29.511000   36.447000
 ---------------------------------------------------------------------
                    Distance matrix (angstroms):
                    1          2          3          4          5
     1  C    0.000000
     2  N    3.713574   0.000000
     3  O    5.198626   3.566000   0.000000
     4  C    2.387748   5.837634   7.488293   0.000000
     5  C    1.377616   4.623191   5.323723   2.767163   0.000000
     6  C    2.755408   6.458433   7.583863   1.386220   2.393593
     7  C    2.390534   5.950772   6.609745   2.399837   1.385888
     8  C    1.463029   2.277253   4.088607   3.735521   2.440293
     9  C    2.694770   1.339252   4.432913   4.666338   3.749776
    10  C    3.555007   1.373361   2.392218   5.813670   4.231458
    11  C    3.044746   3.658622   2.755789   5.037382   3.088341
    12  C    3.815803   4.624874   3.648466   5.303910   3.967251
    13  C    3.372695   5.097749   4.997291   4.225495   3.662390
    14  C    4.933960   5.960926   4.194120   6.232184   4.714737
    15  C    4.879201   2.565182   1.425379   7.119331   5.370821
    16  C    6.626625   4.628811   1.430814   8.910626   6.733988
    17  I    3.908349   3.124966   6.516208   5.072568   4.984529
    18  C    7.306775   5.722061   2.372279   9.580719   7.147083
    19  N    2.455052   2.252679   2.865898   4.715105   3.021226
    20  O    4.716726   4.517211   3.513119   6.266818   5.141196
    21  C    1.379517   4.478721   6.382400   1.386023   2.398177
    22  H    3.368240   6.573261   8.429413   1.080109   3.847268
    23  H    2.134660   4.532047   4.647139   3.846820   1.079728
    24  H    3.835230   7.535663   8.581964   2.140049   3.372639
    25  H    3.369838   6.748459   6.998276   3.378508   2.141929
    26  H    2.687383   4.271322   3.535934   4.521589   2.287133
    27  H    3.983289   3.894320   1.883422   6.073599   3.897428
    28  H    3.069802   5.527352   5.418608   3.660773   3.019876
    29  H    2.897876   4.470412   5.110784   3.752182   3.585786
    30  H    4.385560   5.995848   5.747820   4.890406   4.669912
    31  H    4.745062   6.352907   4.711453   5.866539   4.249297
    32  H    5.665384   6.723634   5.061940   6.692250   5.535593
    33  H    5.539299   6.036301   3.640448   7.088470   5.280087
    34  H    5.176984   3.203205   2.061049   7.239818   5.731993
    35  H    5.668221   2.684226   2.061438   7.924883   6.233363
    36  H    7.028226   4.479137   2.070454   9.358903   7.267405
    37  H    7.058417   5.166893   2.070372   9.238262   7.215446
    38  H    7.135364   5.558659   2.616075   9.448277   6.914332
    39  H    7.161097   6.124265   2.613551   9.324576   6.855315
    40  H    8.371802   6.578780   3.318799  10.648771   8.235266
    41  H    5.246048   4.598782   2.884518   6.996777   5.565315
    42  H    2.139061   4.269103   6.607528   2.144550   3.376352
                    6          7          8          9         10
     6  C    0.000000
     7  C    1.381608   0.000000
     8  C    4.217890   3.718205   0.000000
     9  C    5.346321   4.977360   1.489348   0.000000
    10  C    6.257105   5.589873   2.155683   2.164690   0.000000
    11  C    5.073619   4.223995   2.538497   3.716438   2.466587
    12  C    5.428619   4.824842   3.534939   4.700388   3.444166
    13  C    4.476355   4.220703   3.563086   4.817978   4.200296
    14  C    6.075112   5.347588   4.835560   6.074683   4.687871
    15  C    7.474039   6.706994   3.572951   3.620990   1.493036
    16  C    8.999736   8.000855   5.479788   5.667765   3.607022
    17  I    5.936367   5.904050   3.341464   2.185840   4.288713
    18  C    9.466839   8.325387   6.314311   6.630896   4.706675
    19  N    5.040100   4.345303   1.340143   2.261309   1.326186
    20  O    6.608217   6.103828   4.089683   4.904611   3.356434
    21  C    2.400280   2.773991   2.470246   3.328984   4.524647
    22  H    2.141797   3.377783   4.608579   5.381171   6.645691
    23  H    3.373325   2.141821   2.639079   3.898025   3.975191
    24  H    1.079868   2.135686   5.297736   6.407793   7.328120
    25  H    2.138048   1.079466   4.581051   5.853481   6.291812
    26  H    4.302917   3.305177   2.672818   4.043433   3.254392
    27  H    6.026852   5.049478   3.295910   4.244443   2.577969
    28  H    3.633560   3.325206   3.651807   5.057980   4.677655
    29  H    4.320799   4.250062   2.994347   4.087522   3.809334
    30  H    5.165205   5.060895   4.598680   5.776932   5.090182
    31  H    5.486423   4.681199   4.918775   6.285951   5.140441
    32  H    6.599862   6.039203   5.627775   6.839900   5.482249
    33  H    6.901801   6.037563   5.228866   6.347610   4.685335
    34  H    7.658582   6.993396   3.977901   4.165153   2.120028
    35  H    8.346757   7.599099   4.268220   3.951494   2.119679
    36  H    9.547922   8.592512   5.752613   5.655298   3.729343
    37  H    9.370163   8.437746   5.949840   6.214788   4.064594
    38  H    9.287198   8.097810   6.158796   6.394775   4.698906
    39  H    9.099875   7.928846   6.339895   6.891763   4.966610
    40  H   10.549694   9.410472   7.339536   7.573869   5.619747
    41  H    7.254394   6.606702   4.471624   5.189428   3.335869
    42  H    3.381556   3.854467   2.691014   3.149157   4.515555
                   11         12         13         14         15
    11  C    0.000000
    12  C    1.517802   0.000000
    13  C    2.488865   1.516081   0.000000
    14  C    2.477739   1.514837   2.449382   0.000000
    15  C    2.882810   3.597928   4.736959   4.560793   0.000000
    16  C    4.088891   4.744784   6.181195   5.052957   2.291882
    17  I    5.816930   6.738533   6.571297   8.131396   5.666348
    18  C    4.753832   5.507796   6.973640   5.491837   3.606044
    19  N    1.475537   2.600136   3.156396   3.869554   2.442245
    20  O    2.413042   1.426579   2.428510   2.378595   3.128631
    21  C    4.133024   4.539055   3.669995   5.699058   5.878662
    22  H    5.975431   6.091733   4.871150   7.032526   7.960431
    23  H    2.727550   3.866027   3.965879   4.446637   4.938975
    24  H    6.032286   6.287772   5.258573   6.788017   8.520839
    25  H    4.719924   5.333944   4.861949   5.586530   7.292451
    26  H    1.090150   2.106814   2.642213   2.688691   3.849315
    27  H    1.090331   2.106782   3.406406   2.615086   2.474822
    28  H    2.701490   2.141624   1.089794   2.688726   5.344887
    29  H    2.739774   2.141799   1.089647   3.403898   4.576422
    30  H    3.434032   2.142348   1.090298   2.657079   5.463277
    31  H    2.709112   2.141091   2.671057   1.089751   5.209464
    32  H    3.425968   2.141134   2.674387   1.089853   5.296390
    33  H    2.705758   2.141026   3.404651   1.089757   4.253131
    34  H    2.968793   3.190954   4.335717   4.147938   1.090106
    35  H    3.947156   4.669508   5.765033   5.620376   1.090071
    36  H    4.791145   5.521981   6.881912   6.007368   2.436277
    37  H    4.316277   4.619132   6.083897   4.810206   2.630736
    38  H    4.913064   5.912954   7.298539   6.001407   3.844432
    39  H    4.446999   5.076083   6.547412   4.798538   3.968724
    40  H    5.776465   6.417184   7.909530   6.324954   4.396923
    41  H    2.562598   1.945148   3.247836   2.517652   2.703877
    42  H    4.568404   4.858990   3.979597   6.165475   5.880421
                   16         17         18         19         20
    16  C    0.000000
    17  I    7.666847   0.000000
    18  C    1.491752   8.593162   0.000000
    19  N    4.263323   4.406797   5.147602   0.000000
    20  O    4.352567   6.953282   5.387004   3.027519   0.000000
    21  C    7.793362   3.968039   8.576625   3.534554   5.334876
    22  H    9.841038   5.500869  10.575135   5.612933   6.958925
    23  H    6.009581   5.356146   6.266089   2.849090   5.043509
    24  H    9.986318   6.866029  10.393185   6.095988   7.503201
    25  H    8.331940   6.816915   8.473013   5.051251   6.693650
    26  H    4.868861   5.972501   5.289290   2.070406   3.325931
    27  H    3.131581   6.396552   3.683291   2.070569   2.655935
    28  H    6.671494   6.698779   7.289198   3.455792   3.360599
    29  H    6.348464   5.697213   7.288379   2.856006   2.682221
    30  H    6.805010   7.472394   7.616439   4.160454   2.682797
    31  H    5.663906   8.253208   5.910711   4.136340   3.324946
    32  H    5.797620   8.852391   6.295973   4.712107   2.621439
    33  H    4.277847   8.486183   4.582608   4.091500   2.621130
    34  H    2.682966   6.215585   4.069317   2.797168   2.346072
    35  H    2.377915   5.768124   3.739913   3.323822   4.074201
    36  H    1.089806   7.490850   2.123754   4.654216   5.015947
    37  H    1.089525   8.269203   2.123390   4.658778   3.993709
    38  H    2.121058   8.225134   1.090022   5.139040   5.954979
    39  H    2.120825   8.937274   1.090303   5.139659   5.120584
    40  H    2.120039   9.497290   1.089553   6.159374   6.158293
    41  H    3.523228   7.313514   4.547453   3.242082   0.959840
    42  H    7.969474   3.539006   8.903065   3.757582   5.391102
                   21         22         23         24         25
    21  C    0.000000
    22  H    2.141270   0.000000
    23  H    3.374600   4.926912   0.000000
    24  H    3.378305   2.465112   4.266023   0.000000
    25  H    3.853452   4.269426   2.469268   2.461288   0.000000
    26  H    3.842100   5.525492   1.842659   5.208156   3.684314
    27  H    5.156479   7.036113   3.286211   6.966784   5.404577
    28  H    3.387957   4.383096   3.393800   4.346827   3.876868
    29  H    2.981995   4.324440   4.054745   5.186365   5.076394
    30  H    4.486323   5.373309   5.000589   5.817237   5.645689
    31  H    5.528592   6.703256   3.964662   6.108360   4.761728
    32  H    6.242162   7.377898   5.396453   7.233202   6.294351
    33  H    6.455845   7.944176   4.813830   7.650323   6.208060
    34  H    6.031215   8.012698   5.409603   8.679887   7.610308
    35  H    6.627570   8.735913   5.795068   9.410160   8.201584
    36  H    8.159581  10.262729   6.581073  10.569539   8.988281
    37  H    8.137368  10.123555   6.565062  10.339545   8.789633
    38  H    8.455955  10.469597   5.977367  10.211521   8.210202
    39  H    8.430576  10.329053   5.955297   9.968716   7.987581
    40  H    9.625815  11.633529   7.354519  11.474010   9.544105
    41  H    6.024061   7.753427   5.288524   8.167126   7.115892
    42  H    1.080547   2.471092   4.264550   4.273325   4.933911
                   26         27         28         29         30
    26  H    0.000000
    27  H    1.780268   0.000000
    28  H    2.391311   3.650818   0.000000
    29  H    3.011140   3.742925   1.779588   0.000000
    30  H    3.633597   4.223730   1.780081   1.779898   0.000000
    31  H    2.461333   2.948326   2.447494   3.679969   2.986420
    32  H    3.676214   3.621066   3.039764   3.665750   2.416315
    33  H    3.056495   2.378747   3.684519   4.246802   3.662706
    34  H    4.044347   2.675163   5.111153   4.220121   4.886010
    35  H    4.873749   3.504187   6.395420   5.513709   6.468421
    36  H    5.601846   3.938695   7.416031   6.902527   7.535460
    37  H    5.186998   3.409012   6.687395   6.317203   6.549709
    38  H    5.313258   3.899813   7.507776   7.546622   8.053800
    39  H    4.869296   3.359702   6.784579   7.011443   7.136099
    40  H    6.348113   4.705282   8.275727   8.234175   8.483971
    41  H    3.540340   2.389869   4.063907   3.559623   3.540835
    42  H    4.511694   5.575704   3.964649   3.065987   4.693137
                   31         32         33         34         35
    31  H    0.000000
    32  H    1.779114   0.000000
    33  H    1.779615   1.779323   0.000000
    34  H    4.967506   4.702111   3.886663   0.000000
    35  H    6.286304   6.322497   5.247944   1.779953   0.000000
    36  H    6.635207   6.738987   5.298783   2.967711   2.013185
    37  H    5.570943   5.385025   3.987136   2.563964   2.796281
    38  H    6.280633   6.907645   5.183682   4.541742   3.906832
    39  H    5.138906   5.590841   3.828731   4.287073   4.361583
    40  H    6.799133   7.037937   5.350705   4.764390   4.353443
    41  H    3.512821   2.875816   2.337034   1.897798   3.607796
    42  H    6.162086   6.628086   6.908400   5.962338   6.529098
                   36         37         38         39         40
    36  H    0.000000
    37  H    1.779143   0.000000
    38  H    2.447092   3.026144   0.000000
    39  H    3.026434   2.448128   1.780429   0.000000
    40  H    2.449777   2.447561   1.779577   1.779796   0.000000
    41  H    4.244557   3.073441   5.205587   4.301656   5.259422
    42  H    8.235254   8.264406   8.825765   8.849340   9.914034
                   41         42
    41  H    0.000000
    42  H    6.119171   0.000000
 Stoichiometry    C16H21IN2O2
 Framework group  C1[X(C16H21IN2O2)]
 Deg. of freedom   120
 Full point group                 C1      NOp   1
 Largest Abelian subgroup         C1      NOp   1
 Largest concise Abelian subgroup C1      NOp   1
                         Standard orientation:                         
 ---------------------------------------------------------------------
 Center     Atomic      Atomic             Coordinates (Angstroms)
 Number     Number       Type             X           Y           Z
 ---------------------------------------------------------------------
      1          6           0       -0.975058    1.502742    0.433154
      2          7           0       -0.213624   -2.032602   -0.410764
      3          8           0        3.185187   -1.611057    0.582585
      4          6           0       -2.351684    3.388512   -0.066960
      5          6           0       -0.454184    2.157802    1.527417
      6          6           0       -1.847038    4.043800    1.045486
      7          6           0       -0.896533    3.433251    1.840854
      8          6           0       -0.465386    0.169255    0.112996
      9          6           0       -1.159896   -1.122360   -0.146898
     10          6           0        0.983920   -1.366250   -0.321407
     11          6           0        1.983746    0.834455    0.169811
     12          6           0        2.562431    1.620409   -0.992568
     13          6           0        1.548015    2.624611   -1.503488
     14          6           0        3.782493    2.388923   -0.528279
     15          6           0        2.347451   -1.940217   -0.522655
     16          6           0        4.288099   -2.521925    0.548897
     17         53           0       -3.293640   -1.595606   -0.114212
     18          6           0        5.036184   -2.407546    1.834436
     19          7           0        0.843215   -0.079026   -0.035006
     20          8           0        2.973437    0.729815   -2.028446
     21          6           0       -1.907941    2.113148   -0.379373
     22          1           0       -3.090130    3.871249   -0.690096
     23          1           0        0.296096    1.679350    2.138953
     24          1           0       -2.197813    5.035077    1.291331
     25          1           0       -0.499866    3.947752    2.702939
     26          1           0        1.668163    1.565650    0.914249
     27          1           0        2.797454    0.232004    0.574476
     28          1           0        1.254113    3.288937   -0.691120
     29          1           0        0.670775    2.096949   -1.876790
     30          1           0        1.990385    3.210098   -2.309877
     31          1           0        3.497279    3.079319    0.265171
     32          1           0        4.198890    2.950078   -1.364640
     33          1           0        4.530072    1.691250   -0.151520
     34          1           0        2.779320   -1.532053   -1.436561
     35          1           0        2.272803   -3.024296   -0.608984
     36          1           0        3.920077   -3.540429    0.426879
     37          1           0        4.946134   -2.271947   -0.282707
     38          1           0        4.374855   -2.658531    2.663772
     39          1           0        5.398441   -1.386192    1.954298
     40          1           0        5.882216   -3.094020    1.824068
     41          1           0        3.639453    0.144754   -1.660451
     42          1           0       -2.289625    1.601791   -1.251389
 ---------------------------------------------------------------------
 Rotational constants (GHZ):           0.2658652           0.1515530           0.1090465
 Standard basis: STO-3G (5D, 7F)
 There are   150 symmetry adapted cartesian basis functions of A   symmetry.
 There are   148 symmetry adapted basis functions of A   symmetry.
   148 basis functions,   450 primitive gaussians,   150 cartesian basis functions
   100 alpha electrons      100 beta electrons
       nuclear repulsion energy      2421.6133849010 Hartrees.
 NAtoms=   42 NActive=   42 NUniq=   42 SFac= 1.00D+00 NAtFMM=   60 NAOKFM=F Big=F
 Integral buffers will be    131072 words long.
 Raffenetti 1 integral format.
 Two-electron integral symmetry is turned on.
 One-electron integrals computed using PRISM.
 NBasis=   148 RedAO= T EigKep=  1.65D-01  NBF=   148
 NBsUse=   148 1.00D-06 EigRej= -1.00D+00 NBFU=   148
 ExpMin= 1.69D-01 ExpMax= 6.04D+03 ExpMxC= 6.04D+03 IAcc=3 IRadAn=         5 AccDes= 0.00D+00
 Harris functional with IExCor=  205 and IRadAn=       5 diagonalized for initial guess.
 HarFok:  IExCor=  205 AccDes= 0.00D+00 IRadAn=         5 IDoV= 1 UseB2=F ITyADJ=14
 ICtDFT=  3500011 ScaDFX=  1.000000  1.000000  1.000000  1.000000
 Defaulting to unpruned grid for atomic number  53.
 FoFCou: FMM=F IPFlag=           0 FMFlag=      100000 FMFlg1=           0
         NFxFlg=           0 DoJE=T BraDBF=F KetDBF=T FulRan=T
         wScrn=  0.000000 ICntrl=       500 IOpCl=  0 I1Cent=   200000004 NGrid=           0
         NMat0=    1 NMatS0=      1 NMatT0=    0 NMatD0=    1 NMtDS0=    0 NMtDT0=    0
 Petite list used in FoFCou.
 Keep R1 ints in memory in canonical form, NReq=62515084.
 Requested convergence on RMS density matrix=1.00D-08 within 128 cycles.
 Requested convergence on MAX density matrix=1.00D-06.
 Requested convergence on             energy=1.00D-06.
 No special actions if energy rises.
 SCF Done:  E(RHF) =  -7716.53899604     A.U. after   14 cycles
            NFock= 14  Conv=0.77D-08     -V/T= 2.0008
 ExpMin= 1.69D-01 ExpMax= 6.04D+03 ExpMxC= 6.04D+03 IAcc=3 IRadAn=         5 AccDes= 0.00D+00
 HarFok:  IExCor=  205 AccDes= 0.00D+00 IRadAn=         5 IDoV=-2 UseB2=F ITyADJ=14
 ICtDFT= 12500011 ScaDFX=  1.000000  1.000000  1.000000  1.000000
 Defaulting to unpruned grid for atomic number  53.
 GSVD:  LWork=       -1748 too small for GESVD, short by        7790 words or        7790 for optimal perf.
 Range of M.O.s used for correlation:    39   148
 NBasis=   148 NAE=   100 NBE=   100 NFC=    38 NFV=     0
 NROrb=    110 NOA=    62 NOB=    62 NVA=    48 NVB=    48
 Disk-based method using ON**2 memory for 62 occupieds at a time.
 Estimated scratch disk usage=   404881340 words.
 Actual    scratch disk usage=   335675324 words.
 JobTyp=1 Pass  1:  I=  39 to 100 NPSUse=  1 ParTrn=F ParDer=F DoDerP=T.
 Spin components of T(2) and E(2):
     alpha-alpha T2 =       0.4669044355D-01 E2=     -0.1004806820D+00
     alpha-beta  T2 =       0.3890413915D+00 E2=     -0.8826927203D+00
     beta-beta   T2 =       0.4669044355D-01 E2=     -0.1004806820D+00
 ANorm=    0.1217547649D+01
 E2 =    -0.1083654084D+01 EUMP2 =    -0.77176226501273D+04
          IDoAtm=111111111111111111111111111111111111111111
          Differentiating once with respect to electric field.
                with respect to dipole field.
          Differentiating once with respect to nuclear coordinates.
 Keep R1 ints in memory in canonical form, NReq=62518886.
          There are     1 degrees of freedom in the 1st order CPHF.  IDoFFX=0 NUNeed=     1.
 LinEq1:  Iter=  0 NonCon=     1 RMS=2.66D-03 Max=4.27D-02 NDo=     1
 AX will form     1 AO Fock derivatives at one time.
 LinEq1:  Iter=  1 NonCon=     1 RMS=6.53D-04 Max=1.05D-02 NDo=     1
 LinEq1:  Iter=  2 NonCon=     1 RMS=1.67D-04 Max=2.89D-03 NDo=     1
 LinEq1:  Iter=  3 NonCon=     1 RMS=7.48D-05 Max=2.58D-03 NDo=     1
 LinEq1:  Iter=  4 NonCon=     1 RMS=2.39D-05 Max=4.06D-04 NDo=     1
 LinEq1:  Iter=  5 NonCon=     1 RMS=9.23D-06 Max=2.70D-04 NDo=     1
 LinEq1:  Iter=  6 NonCon=     1 RMS=2.59D-06 Max=4.01D-05 NDo=     1
 LinEq1:  Iter=  7 NonCon=     1 RMS=1.20D-06 Max=3.74D-05 NDo=     1
 LinEq1:  Iter=  8 NonCon=     1 RMS=3.27D-07 Max=4.55D-06 NDo=     1
 LinEq1:  Iter=  9 NonCon=     1 RMS=1.09D-07 Max=2.00D-06 NDo=     1
 LinEq1:  Iter= 10 NonCon=     1 RMS=3.23D-08 Max=4.39D-07 NDo=     1
 LinEq1:  Iter= 11 NonCon=     1 RMS=1.01D-08 Max=1.56D-07 NDo=     1
 LinEq1:  Iter= 12 NonCon=     1 RMS=2.15D-09 Max=3.98D-08 NDo=     1
 LinEq1:  Iter= 13 NonCon=     1 RMS=6.88D-10 Max=2.06D-08 NDo=     1
 LinEq1:  Iter= 14 NonCon=     1 RMS=1.59D-10 Max=2.64D-09 NDo=     1
 LinEq1:  Iter= 15 NonCon=     1 RMS=5.69D-11 Max=1.80D-09 NDo=     1
 LinEq1:  Iter= 16 NonCon=     0 RMS=1.30D-11 Max=1.65D-10 NDo=     1
 Linear equations converged to 1.000D-10 1.000D-09 after    16 iterations.
 End of Minotr F.D. properties file   721 does not exist.
 End of Minotr F.D. properties file   722 does not exist.
 End of Minotr F.D. properties file   788 does not exist.
 SCF density gives NOpUse=  1 NOpAll=  1.

 **********************************************************************

            Population analysis using the SCF density.

 **********************************************************************

 Orbital symmetries:
 BldTbl:  Degeneracy threshold= 1.00D-02
       Occupied  (A) (A) (A) (A) (A) (A) (A) (A) (A) (A) (A) (A)
                 (A) (A) (A) (A) (A) (A) (A) (A) (A) (A) (A) (A)
                 (A) (A) (A) (A) (A) (A) (A) (A) (A) (A) (A) (A)
                 (A) (A) (A) (A) (A) (A) (A) (A) (A) (A) (A) (A)
                 (A) (A) (A) (A) (A) (A) (A) (A) (A) (A) (A) (A)
                 (A) (A) (A) (A) (A) (A) (A) (A) (A) (A) (A) (A)
                 (A) (A) (A) (A) (A) (A) (A) (A) (A) (A) (A) (A)
                 (A) (A) (A) (A) (A) (A) (A) (A) (A) (A) (A) (A)
                 (A) (A) (A) (A)
       Virtual   (A) (A) (A) (A) (A) (A) (A) (A) (A) (A) (A) (A)
                 (A) (A) (A) (A) (A) (A) (A) (A) (A) (A) (A) (A)
                 (A) (A) (A) (A) (A) (A) (A) (A) (A) (A) (A) (A)
                 (A) (A) (A) (A) (A) (A) (A) (A) (A) (A) (A) (A)
 The electronic state is 1-A.
 Alpha  occ. eigenvalues -- **********-177.15309-168.43556-168.43474-168.43473
 Alpha  occ. eigenvalues --  -35.59912 -32.53690 -32.53288 -32.53283 -23.35341
 Alpha  occ. eigenvalues --  -23.35230 -23.35225 -23.34871 -23.34871 -20.28621
 Alpha  occ. eigenvalues --  -20.25777 -15.45952 -15.30806 -11.12207 -11.11117
 Alpha  occ. eigenvalues --  -11.10909 -11.10817 -11.08267 -11.05949 -11.05683
 Alpha  occ. eigenvalues --  -11.05502 -11.05338 -11.04938 -11.04301 -11.04014
 Alpha  occ. eigenvalues --  -11.03938 -11.03912 -11.03882 -11.03814  -6.54147
 Alpha  occ. eigenvalues --   -5.15216  -5.13705  -5.13680  -1.95781  -1.95263
 Alpha  occ. eigenvalues --   -1.95245  -1.93894  -1.93894  -1.33527  -1.31139
 Alpha  occ. eigenvalues --   -1.29746  -1.13618  -1.11401  -1.04780  -1.01969
 Alpha  occ. eigenvalues --   -0.99619  -0.97208  -0.94374  -0.93154  -0.91921
 Alpha  occ. eigenvalues --   -0.85787  -0.81422  -0.79270  -0.77962  -0.75603
 Alpha  occ. eigenvalues --   -0.74615  -0.70422  -0.68371  -0.66034  -0.64391
 Alpha  occ. eigenvalues --   -0.63715  -0.62964  -0.61005  -0.60509  -0.59868
 Alpha  occ. eigenvalues --   -0.58004  -0.57815  -0.57189  -0.55506  -0.54905
 Alpha  occ. eigenvalues --   -0.54309  -0.53867  -0.52817  -0.51669  -0.51299
 Alpha  occ. eigenvalues --   -0.51053  -0.49064  -0.48307  -0.47408  -0.46533
 Alpha  occ. eigenvalues --   -0.46354  -0.44786  -0.44143  -0.41160  -0.39957
 Alpha  occ. eigenvalues --   -0.39223  -0.37178  -0.35458  -0.33708  -0.33218
 Alpha  occ. eigenvalues --   -0.30155  -0.29379  -0.26645  -0.26531  -0.20581
 Alpha virt. eigenvalues --    0.23302   0.25889   0.28231   0.30440   0.35952
 Alpha virt. eigenvalues --    0.48225   0.49457   0.51936   0.54821   0.57074
 Alpha virt. eigenvalues --    0.59387   0.60924   0.62239   0.62916   0.63577
 Alpha virt. eigenvalues --    0.64075   0.64729   0.65504   0.66608   0.67834
 Alpha virt. eigenvalues --    0.68529   0.68767   0.70572   0.70996   0.71981
 Alpha virt. eigenvalues --    0.73099   0.73229   0.74122   0.74535   0.74984
 Alpha virt. eigenvalues --    0.75743   0.75861   0.77039   0.77322   0.77614
 Alpha virt. eigenvalues --    0.77930   0.79132   0.80760   0.81476   0.86391
 Alpha virt. eigenvalues --    0.88676   0.89656   0.91643   0.96097   0.99303
 Alpha virt. eigenvalues --    1.01650   1.10613   1.16646
          Condensed to atoms (all electrons):
               1          2          3          4          5          6
     1  C    4.748251   0.000516   0.000000  -0.031868   0.509135  -0.012605
     2  N    0.000516   6.521311   0.000071   0.000000  -0.000004   0.000000
     3  O    0.000000   0.000071   7.844947  -0.000000  -0.000000  -0.000000
     4  C   -0.031868   0.000000  -0.000000   4.766341  -0.012117   0.509290
     5  C    0.509135  -0.000004  -0.000000  -0.012117   4.792537  -0.031622
     6  C   -0.012605   0.000000  -0.000000   0.509290  -0.031622   4.769977
     7  C   -0.031689   0.000000   0.000000  -0.030977   0.509625   0.511605
     8  C    0.410754  -0.044911  -0.000003   0.001020  -0.033135   0.000023
     9  C   -0.017842   0.425912  -0.000003   0.000002   0.000254   0.000000
    10  C    0.001753   0.445108  -0.018466   0.000000   0.000008  -0.000000
    11  C   -0.002378   0.000721  -0.008453   0.000001  -0.003878  -0.000001
    12  C    0.000064  -0.000002   0.000046   0.000000   0.000036   0.000000
    13  C   -0.000730  -0.000000  -0.000000  -0.000011  -0.000264  -0.000000
    14  C   -0.000000   0.000000   0.000004  -0.000000   0.000002   0.000000
    15  C   -0.000010  -0.018544   0.259945  -0.000000  -0.000000   0.000000
    16  C   -0.000000  -0.000004   0.263260   0.000000   0.000000   0.000000
    17  I   -0.000019  -0.016728   0.000000  -0.000001   0.000001  -0.000000
    18  C    0.000000   0.000000  -0.019820  -0.000000  -0.000000  -0.000000
    19  N   -0.025271  -0.037990  -0.000227  -0.000004  -0.001593   0.000000
    20  O   -0.000000  -0.000000   0.000009   0.000000  -0.000000  -0.000000
    21  C    0.508417   0.000002   0.000000   0.510634  -0.031822  -0.030956
    22  H    0.001479  -0.000000   0.000000   0.395852   0.000033  -0.025747
    23  H   -0.026520  -0.000002  -0.000000   0.000034   0.398165   0.001460
    24  H    0.000036   0.000000   0.000000  -0.025873   0.001479   0.396036
    25  H    0.001469  -0.000000  -0.000000   0.001456  -0.025848  -0.025854
    26  H   -0.000613  -0.000021   0.000078   0.000001  -0.003468  -0.000002
    27  H    0.000025   0.000019   0.006061  -0.000000   0.000033   0.000000
    28  H   -0.000156  -0.000000  -0.000000  -0.000007  -0.000012   0.000014
    29  H   -0.000224  -0.000001  -0.000000  -0.000008  -0.000045   0.000001
    30  H    0.000013   0.000000   0.000000   0.000000   0.000004  -0.000000
    31  H   -0.000000   0.000000  -0.000000  -0.000000  -0.000000  -0.000000
    32  H    0.000000  -0.000000  -0.000000  -0.000000  -0.000000   0.000000
    33  H    0.000000  -0.000000  -0.000004   0.000000  -0.000000  -0.000000
    34  H    0.000000   0.000370  -0.019429   0.000000   0.000000   0.000000
    35  H    0.000000  -0.001657  -0.014651   0.000000   0.000000  -0.000000
    36  H   -0.000000  -0.000000  -0.015632   0.000000  -0.000000   0.000000
    37  H    0.000000   0.000000  -0.017862  -0.000000   0.000000  -0.000000
    38  H    0.000000  -0.000000  -0.000815  -0.000000  -0.000000  -0.000000
    39  H   -0.000000   0.000000  -0.000809  -0.000000  -0.000000  -0.000000
    40  H    0.000000  -0.000000   0.000674   0.000000   0.000000   0.000000
    41  H    0.000000   0.000000   0.000044   0.000000   0.000000   0.000000
    42  H   -0.025817  -0.000005  -0.000000  -0.025145   0.001427   0.001422
               7          8          9         10         11         12
     1  C   -0.031689   0.410754  -0.017842   0.001753  -0.002378   0.000064
     2  N    0.000000  -0.044911   0.425912   0.445108   0.000721  -0.000002
     3  O    0.000000  -0.000003  -0.000003  -0.018466  -0.008453   0.000046
     4  C   -0.030977   0.001020   0.000002   0.000000   0.000001   0.000000
     5  C    0.509625  -0.033135   0.000254   0.000008  -0.003878   0.000036
     6  C    0.511605   0.000023   0.000000  -0.000000  -0.000001   0.000000
     7  C    4.769448   0.001070  -0.000004   0.000000   0.000003   0.000000
     8  C    0.001070   4.851467   0.481372  -0.089234  -0.023343   0.000079
     9  C   -0.000004   0.481372   4.993160  -0.069902   0.001075  -0.000002
    10  C    0.000000  -0.089234  -0.069902   4.829585  -0.028364  -0.000047
    11  C    0.000003  -0.023343   0.001075  -0.028364   4.748866   0.354051
    12  C    0.000000   0.000079  -0.000002  -0.000047   0.354051   4.729941
    13  C   -0.000030  -0.000101  -0.000001   0.000012  -0.029442   0.363068
    14  C    0.000000  -0.000005   0.000000  -0.000004  -0.028550   0.363167
    15  C   -0.000000   0.001525   0.001522   0.381932  -0.002269   0.000176
    16  C   -0.000000   0.000000   0.000000   0.001768   0.000222  -0.000002
    17  I    0.000000  -0.015065   0.263164   0.001073  -0.000001   0.000000
    18  C    0.000000   0.000000  -0.000000  -0.000019  -0.000001  -0.000000
    19  N    0.000003   0.425866  -0.049408   0.424916   0.323731  -0.015212
    20  O   -0.000000   0.000004  -0.000000   0.000135  -0.020812   0.269411
    21  C   -0.011788  -0.030913  -0.001257  -0.000004   0.000003   0.000009
    22  H    0.001445  -0.000019  -0.000000  -0.000000  -0.000000   0.000000
    23  H   -0.025769  -0.003948   0.000032  -0.000038  -0.003635   0.000030
    24  H   -0.026164   0.000001  -0.000000   0.000000   0.000000  -0.000000
    25  H    0.395928  -0.000020   0.000000  -0.000000   0.000002  -0.000000
    26  H    0.000016  -0.003532   0.000011   0.001430   0.385033  -0.023689
    27  H    0.000000   0.001245  -0.000023  -0.004633   0.381898  -0.025724
    28  H    0.000019  -0.000001   0.000000  -0.000001  -0.002719  -0.020365
    29  H   -0.000001  -0.000123   0.000001   0.000007  -0.002392  -0.022068
    30  H    0.000000  -0.000000   0.000000  -0.000000   0.001464  -0.021600
    31  H    0.000000   0.000000   0.000000  -0.000000  -0.002043  -0.020235
    32  H    0.000000   0.000000  -0.000000   0.000000   0.001337  -0.021051
    33  H   -0.000000  -0.000000   0.000000   0.000001  -0.002802  -0.022781
    34  H   -0.000000   0.000039  -0.000028  -0.027259  -0.000019   0.000071
    35  H    0.000000  -0.000037   0.000036  -0.021828  -0.000016  -0.000001
    36  H   -0.000000  -0.000000   0.000000   0.000114  -0.000009   0.000000
    37  H    0.000000  -0.000000  -0.000000  -0.000021   0.000003   0.000000
    38  H    0.000000   0.000000   0.000000  -0.000001  -0.000001   0.000000
    39  H    0.000000   0.000000  -0.000000  -0.000000  -0.000006   0.000000
    40  H   -0.000000  -0.000000   0.000000   0.000000   0.000000  -0.000000
    41  H    0.000000   0.000000  -0.000000  -0.000030  -0.002722  -0.042509
    42  H    0.000031  -0.003690   0.000181  -0.000006   0.000002   0.000000
              13         14         15         16         17         18
     1  C   -0.000730  -0.000000  -0.000010  -0.000000  -0.000019   0.000000
     2  N   -0.000000   0.000000  -0.018544  -0.000004  -0.016728   0.000000
     3  O   -0.000000   0.000004   0.259945   0.263260   0.000000  -0.019820
     4  C   -0.000011  -0.000000  -0.000000   0.000000  -0.000001  -0.000000
     5  C   -0.000264   0.000002  -0.000000   0.000000   0.000001  -0.000000
     6  C   -0.000000   0.000000   0.000000   0.000000  -0.000000  -0.000000
     7  C   -0.000030   0.000000  -0.000000  -0.000000   0.000000   0.000000
     8  C   -0.000101  -0.000005   0.001525   0.000000  -0.015065   0.000000
     9  C   -0.000001   0.000000   0.001522   0.000000   0.263164  -0.000000
    10  C    0.000012  -0.000004   0.381932   0.001768   0.001073  -0.000019
    11  C   -0.029442  -0.028550  -0.002269   0.000222  -0.000001  -0.000001
    12  C    0.363068   0.363167   0.000176  -0.000002   0.000000  -0.000000
    13  C    4.750056  -0.030740  -0.000003   0.000000   0.000000  -0.000000
    14  C   -0.030740   4.767432  -0.000002  -0.000001  -0.000000  -0.000000
    15  C   -0.000003  -0.000002   4.718789  -0.045904  -0.000003   0.001851
    16  C    0.000000  -0.000001  -0.045904   4.722958  -0.000000   0.364860
    17  I    0.000000  -0.000000  -0.000003  -0.000000  52.744369   0.000000
    18  C   -0.000000  -0.000000   0.001851   0.364860   0.000000   4.731235
    19  N   -0.000785   0.000405  -0.029076  -0.000002   0.000196  -0.000000
    20  O   -0.017031  -0.021432  -0.001367  -0.000000  -0.000000   0.000000
    21  C   -0.000291  -0.000000   0.000000  -0.000000  -0.000089   0.000000
    22  H   -0.000000  -0.000000   0.000000  -0.000000   0.000000   0.000000
    23  H    0.000006   0.000003   0.000001   0.000000   0.000000  -0.000000
    24  H   -0.000000  -0.000000  -0.000000  -0.000000   0.000000   0.000000
    25  H   -0.000000   0.000000   0.000000   0.000000  -0.000000  -0.000000
    26  H   -0.003091  -0.001982   0.000027  -0.000003  -0.000000   0.000000
    27  H    0.001403  -0.003469  -0.003311  -0.000258   0.000000  -0.000011
    28  H    0.385599  -0.002673   0.000000   0.000000   0.000000  -0.000000
    29  H    0.383653   0.001548  -0.000001   0.000000  -0.000000   0.000000
    30  H    0.384009  -0.003366   0.000000  -0.000000  -0.000000  -0.000000
    31  H   -0.002407   0.382504   0.000000   0.000000  -0.000000   0.000000
    32  H   -0.003282   0.385847  -0.000000   0.000000   0.000000  -0.000000
    33  H    0.001491   0.382852  -0.000001   0.000001  -0.000000  -0.000000
    34  H   -0.000004   0.000012   0.375960  -0.001358   0.000000  -0.000027
    35  H    0.000000  -0.000000   0.380543  -0.010499  -0.000001   0.000126
    36  H   -0.000000   0.000000  -0.008952   0.381446  -0.000000  -0.024190
    37  H   -0.000000  -0.000000  -0.002223   0.378212   0.000000  -0.025533
    38  H   -0.000000   0.000000   0.000035  -0.023095   0.000000   0.385112
    39  H   -0.000000  -0.000000   0.000013  -0.023346   0.000000   0.384367
    40  H    0.000000   0.000000  -0.000043  -0.020754  -0.000000   0.383937
    41  H    0.002547  -0.003625  -0.002176   0.000004   0.000000  -0.000000
    42  H   -0.000017  -0.000000   0.000000   0.000000   0.000016  -0.000000
              19         20         21         22         23         24
     1  C   -0.025271  -0.000000   0.508417   0.001479  -0.026520   0.000036
     2  N   -0.037990  -0.000000   0.000002  -0.000000  -0.000002   0.000000
     3  O   -0.000227   0.000009   0.000000   0.000000  -0.000000   0.000000
     4  C   -0.000004   0.000000   0.510634   0.395852   0.000034  -0.025873
     5  C   -0.001593  -0.000000  -0.031822   0.000033   0.398165   0.001479
     6  C    0.000000  -0.000000  -0.030956  -0.025747   0.001460   0.396036
     7  C    0.000003  -0.000000  -0.011788   0.001445  -0.025769  -0.026164
     8  C    0.425866   0.000004  -0.030913  -0.000019  -0.003948   0.000001
     9  C   -0.049408  -0.000000  -0.001257  -0.000000   0.000032  -0.000000
    10  C    0.424916   0.000135  -0.000004  -0.000000  -0.000038   0.000000
    11  C    0.323731  -0.020812   0.000003  -0.000000  -0.003635   0.000000
    12  C   -0.015212   0.269411   0.000009   0.000000   0.000030  -0.000000
    13  C   -0.000785  -0.017031  -0.000291  -0.000000   0.000006  -0.000000
    14  C    0.000405  -0.021432  -0.000000  -0.000000   0.000003  -0.000000
    15  C   -0.029076  -0.001367   0.000000   0.000000   0.000001  -0.000000
    16  C   -0.000002  -0.000000  -0.000000  -0.000000   0.000000  -0.000000
    17  I    0.000196  -0.000000  -0.000089   0.000000   0.000000   0.000000
    18  C   -0.000000   0.000000   0.000000   0.000000  -0.000000   0.000000
    19  N    6.260448  -0.000089   0.000265   0.000000   0.000252  -0.000000
    20  O   -0.000089   7.851227  -0.000000  -0.000000  -0.000000   0.000000
    21  C    0.000265  -0.000000   4.773060  -0.025762   0.001443   0.001449
    22  H    0.000000  -0.000000  -0.025762   0.592113   0.000002  -0.003814
    23  H    0.000252  -0.000000   0.001443   0.000002   0.601069  -0.000034
    24  H   -0.000000   0.000000   0.001449  -0.003814  -0.000034   0.594694
    25  H   -0.000000   0.000000   0.000029  -0.000033  -0.003754  -0.003883
    26  H   -0.022501   0.000640  -0.000041  -0.000000  -0.003611   0.000000
    27  H   -0.021925  -0.000996  -0.000000  -0.000000   0.000067  -0.000000
    28  H    0.000050   0.000539  -0.000089  -0.000000  -0.000017  -0.000000
    29  H    0.000132  -0.000506  -0.000117  -0.000000   0.000001  -0.000000
    30  H   -0.000003  -0.000478   0.000008   0.000000  -0.000000   0.000000
    31  H    0.000008   0.000681  -0.000000  -0.000000  -0.000000   0.000000
    32  H   -0.000008  -0.000826   0.000000   0.000000  -0.000000   0.000000
    33  H    0.000007  -0.001324   0.000000  -0.000000  -0.000000   0.000000
    34  H   -0.001193  -0.001141  -0.000000  -0.000000  -0.000000   0.000000
    35  H    0.001002   0.000015  -0.000000  -0.000000  -0.000000   0.000000
    36  H   -0.000001   0.000000  -0.000000  -0.000000  -0.000000   0.000000
    37  H   -0.000000  -0.000005   0.000000   0.000000   0.000000  -0.000000
    38  H   -0.000000  -0.000000   0.000000   0.000000  -0.000000   0.000000
    39  H   -0.000000   0.000000   0.000000   0.000000  -0.000000   0.000000
    40  H    0.000000   0.000000  -0.000000  -0.000000   0.000000  -0.000000
    41  H    0.000052   0.261243  -0.000000  -0.000000   0.000000  -0.000000
    42  H    0.000036   0.000000   0.396345  -0.003729  -0.000035  -0.000033
              25         26         27         28         29         30
     1  C    0.001469  -0.000613   0.000025  -0.000156  -0.000224   0.000013
     2  N   -0.000000  -0.000021   0.000019  -0.000000  -0.000001   0.000000
     3  O   -0.000000   0.000078   0.006061  -0.000000  -0.000000   0.000000
     4  C    0.001456   0.000001  -0.000000  -0.000007  -0.000008   0.000000
     5  C   -0.025848  -0.003468   0.000033  -0.000012  -0.000045   0.000004
     6  C   -0.025854  -0.000002   0.000000   0.000014   0.000001  -0.000000
     7  C    0.395928   0.000016   0.000000   0.000019  -0.000001   0.000000
     8  C   -0.000020  -0.003532   0.001245  -0.000001  -0.000123  -0.000000
     9  C    0.000000   0.000011  -0.000023   0.000000   0.000001   0.000000
    10  C   -0.000000   0.001430  -0.004633  -0.000001   0.000007  -0.000000
    11  C    0.000002   0.385033   0.381898  -0.002719  -0.002392   0.001464
    12  C   -0.000000  -0.023689  -0.025724  -0.020365  -0.022068  -0.021600
    13  C   -0.000000  -0.003091   0.001403   0.385599   0.383653   0.384009
    14  C    0.000000  -0.001982  -0.003469  -0.002673   0.001548  -0.003366
    15  C    0.000000   0.000027  -0.003311   0.000000  -0.000001   0.000000
    16  C    0.000000  -0.000003  -0.000258   0.000000   0.000000  -0.000000
    17  I   -0.000000  -0.000000   0.000000   0.000000  -0.000000  -0.000000
    18  C   -0.000000   0.000000  -0.000011  -0.000000   0.000000  -0.000000
    19  N   -0.000000  -0.022501  -0.021925   0.000050   0.000132  -0.000003
    20  O    0.000000   0.000640  -0.000996   0.000539  -0.000506  -0.000478
    21  C    0.000029  -0.000041  -0.000000  -0.000089  -0.000117   0.000008
    22  H   -0.000033  -0.000000  -0.000000  -0.000000  -0.000000   0.000000
    23  H   -0.003754  -0.003611   0.000067  -0.000017   0.000001  -0.000000
    24  H   -0.003883   0.000000  -0.000000  -0.000000  -0.000000   0.000000
    25  H    0.595277   0.000008   0.000000  -0.000001   0.000000   0.000000
    26  H    0.000008   0.605808  -0.017432  -0.000310   0.000026   0.000052
    27  H    0.000000  -0.017432   0.572072   0.000045   0.000012  -0.000045
    28  H   -0.000001  -0.000310   0.000045   0.614615  -0.020197  -0.020009
    29  H    0.000000   0.000026   0.000012  -0.020197   0.608746  -0.019962
    30  H    0.000000   0.000052  -0.000045  -0.020009  -0.019962   0.611082
    31  H    0.000000  -0.000135   0.000028  -0.000310   0.000038   0.000030
    32  H   -0.000000   0.000020   0.000028   0.000062   0.000034  -0.000043
    33  H    0.000000   0.000049   0.000234   0.000042  -0.000051   0.000040
    34  H    0.000000  -0.000004  -0.000725  -0.000000  -0.000000   0.000000
    35  H   -0.000000   0.000000   0.000148  -0.000000   0.000000   0.000000
    36  H    0.000000   0.000000   0.000031  -0.000000  -0.000000   0.000000
    37  H   -0.000000  -0.000000  -0.000011   0.000000  -0.000000  -0.000000
    38  H   -0.000000   0.000000   0.000000   0.000000  -0.000000   0.000000
    39  H   -0.000000   0.000000   0.000015  -0.000000  -0.000000   0.000000
    40  H    0.000000  -0.000000  -0.000000   0.000000  -0.000000  -0.000000
    41  H    0.000000  -0.000008   0.000503  -0.000079   0.000009   0.000015
    42  H    0.000002  -0.000001   0.000000   0.000001  -0.000030   0.000000
              31         32         33         34         35         36
     1  C   -0.000000   0.000000   0.000000   0.000000   0.000000  -0.000000
     2  N    0.000000  -0.000000  -0.000000   0.000370  -0.001657  -0.000000
     3  O   -0.000000  -0.000000  -0.000004  -0.019429  -0.014651  -0.015632
     4  C   -0.000000  -0.000000   0.000000   0.000000   0.000000   0.000000
     5  C   -0.000000  -0.000000  -0.000000   0.000000   0.000000  -0.000000
     6  C   -0.000000   0.000000  -0.000000   0.000000  -0.000000   0.000000
     7  C    0.000000   0.000000  -0.000000  -0.000000   0.000000  -0.000000
     8  C    0.000000   0.000000  -0.000000   0.000039  -0.000037  -0.000000
     9  C    0.000000  -0.000000   0.000000  -0.000028   0.000036   0.000000
    10  C   -0.000000   0.000000   0.000001  -0.027259  -0.021828   0.000114
    11  C   -0.002043   0.001337  -0.002802  -0.000019  -0.000016  -0.000009
    12  C   -0.020235  -0.021051  -0.022781   0.000071  -0.000001   0.000000
    13  C   -0.002407  -0.003282   0.001491  -0.000004   0.000000  -0.000000
    14  C    0.382504   0.385847   0.382852   0.000012  -0.000000   0.000000
    15  C    0.000000  -0.000000  -0.000001   0.375960   0.380543  -0.008952
    16  C    0.000000   0.000000   0.000001  -0.001358  -0.010499   0.381446
    17  I   -0.000000   0.000000  -0.000000   0.000000  -0.000001  -0.000000
    18  C    0.000000  -0.000000  -0.000000  -0.000027   0.000126  -0.024190
    19  N    0.000008  -0.000008   0.000007  -0.001193   0.001002  -0.000001
    20  O    0.000681  -0.000826  -0.001324  -0.001141   0.000015   0.000000
    21  C   -0.000000   0.000000   0.000000  -0.000000  -0.000000  -0.000000
    22  H   -0.000000   0.000000  -0.000000  -0.000000  -0.000000  -0.000000
    23  H   -0.000000  -0.000000  -0.000000  -0.000000  -0.000000  -0.000000
    24  H    0.000000   0.000000   0.000000   0.000000   0.000000   0.000000
    25  H    0.000000  -0.000000   0.000000   0.000000  -0.000000   0.000000
    26  H   -0.000135   0.000020   0.000049  -0.000004   0.000000   0.000000
    27  H    0.000028   0.000028   0.000234  -0.000725   0.000148   0.000031
    28  H   -0.000310   0.000062   0.000042  -0.000000  -0.000000  -0.000000
    29  H    0.000038   0.000034  -0.000051  -0.000000   0.000000  -0.000000
    30  H    0.000030  -0.000043   0.000040   0.000000   0.000000   0.000000
    31  H    0.618096  -0.019729  -0.020207  -0.000000  -0.000000  -0.000000
    32  H   -0.019729   0.604861  -0.020670   0.000000   0.000000  -0.000000
    33  H   -0.020207  -0.020670   0.627402  -0.000002  -0.000000  -0.000000
    34  H   -0.000000   0.000000  -0.000002   0.634223  -0.023361  -0.000292
    35  H   -0.000000   0.000000  -0.000000  -0.023361   0.607589   0.000867
    36  H   -0.000000  -0.000000  -0.000000  -0.000292   0.000867   0.633129
    37  H    0.000000  -0.000000   0.000000   0.001048  -0.000459  -0.025698
    38  H   -0.000000  -0.000000  -0.000000  -0.000002   0.000007  -0.003018
    39  H   -0.000000  -0.000000   0.000002   0.000001  -0.000002   0.002137
    40  H   -0.000000   0.000000   0.000000   0.000001  -0.000004  -0.002179
    41  H    0.000004  -0.000012   0.000541  -0.002398   0.000029   0.000001
    42  H    0.000000  -0.000000   0.000000   0.000000  -0.000000   0.000000
              37         38         39         40         41         42
     1  C    0.000000   0.000000  -0.000000   0.000000   0.000000  -0.025817
     2  N    0.000000  -0.000000   0.000000  -0.000000   0.000000  -0.000005
     3  O   -0.017862  -0.000815  -0.000809   0.000674   0.000044  -0.000000
     4  C   -0.000000  -0.000000  -0.000000   0.000000   0.000000  -0.025145
     5  C    0.000000  -0.000000  -0.000000   0.000000   0.000000   0.001427
     6  C   -0.000000  -0.000000  -0.000000   0.000000   0.000000   0.001422
     7  C    0.000000   0.000000   0.000000  -0.000000   0.000000   0.000031
     8  C   -0.000000   0.000000   0.000000  -0.000000   0.000000  -0.003690
     9  C   -0.000000   0.000000  -0.000000   0.000000  -0.000000   0.000181
    10  C   -0.000021  -0.000001  -0.000000   0.000000  -0.000030  -0.000006
    11  C    0.000003  -0.000001  -0.000006   0.000000  -0.002722   0.000002
    12  C    0.000000   0.000000   0.000000  -0.000000  -0.042509   0.000000
    13  C   -0.000000  -0.000000  -0.000000   0.000000   0.002547  -0.000017
    14  C   -0.000000   0.000000  -0.000000   0.000000  -0.003625  -0.000000
    15  C   -0.002223   0.000035   0.000013  -0.000043  -0.002176   0.000000
    16  C    0.378212  -0.023095  -0.023346  -0.020754   0.000004   0.000000
    17  I    0.000000   0.000000   0.000000  -0.000000   0.000000   0.000016
    18  C   -0.025533   0.385112   0.384367   0.383937  -0.000000  -0.000000
    19  N   -0.000000  -0.000000  -0.000000   0.000000   0.000052   0.000036
    20  O   -0.000005  -0.000000   0.000000   0.000000   0.261243   0.000000
    21  C    0.000000   0.000000   0.000000  -0.000000  -0.000000   0.396345
    22  H    0.000000   0.000000   0.000000  -0.000000  -0.000000  -0.003729
    23  H    0.000000  -0.000000  -0.000000   0.000000   0.000000  -0.000035
    24  H   -0.000000   0.000000   0.000000  -0.000000  -0.000000  -0.000033
    25  H   -0.000000  -0.000000  -0.000000   0.000000   0.000000   0.000002
    26  H   -0.000000   0.000000   0.000000  -0.000000  -0.000008  -0.000001
    27  H   -0.000011   0.000000   0.000015  -0.000000   0.000503   0.000000
    28  H    0.000000   0.000000  -0.000000   0.000000  -0.000079   0.000001
    29  H   -0.000000  -0.000000  -0.000000  -0.000000   0.000009  -0.000030
    30  H   -0.000000   0.000000   0.000000  -0.000000   0.000015   0.000000
    31  H    0.000000  -0.000000  -0.000000  -0.000000   0.000004   0.000000
    32  H   -0.000000  -0.000000  -0.000000   0.000000  -0.000012  -0.000000
    33  H    0.000000  -0.000000   0.000002   0.000000   0.000541   0.000000
    34  H    0.001048  -0.000002   0.000001   0.000001  -0.002398   0.000000
    35  H   -0.000459   0.000007  -0.000002  -0.000004   0.000029  -0.000000
    36  H   -0.025698  -0.003018   0.002137  -0.002179   0.000001   0.000000
    37  H    0.644365   0.002138  -0.002988  -0.002071  -0.000008  -0.000000
    38  H    0.002138   0.608599  -0.020629  -0.019784   0.000000  -0.000000
    39  H   -0.002988  -0.020629   0.616585  -0.019891  -0.000000   0.000000
    40  H   -0.002071  -0.019784  -0.019891   0.612378   0.000000   0.000000
    41  H   -0.000008   0.000000  -0.000000   0.000000   0.602461   0.000000
    42  H   -0.000000  -0.000000   0.000000   0.000000   0.000000   0.585244
 Mulliken charges:
               1
     1  C   -0.006166
     2  N   -0.274163
     3  O   -0.258964
     4  C   -0.058617
     5  C   -0.068932
     6  C   -0.063043
     7  C   -0.062773
     8  C    0.073614
     9  C   -0.028251
    10  C    0.172013
    11  C   -0.034556
    12  C    0.155139
    13  C   -0.183612
    14  C   -0.187927
    15  C   -0.008433
    16  C    0.012494
    17  I    0.023088
    18  C   -0.181887
    19  N   -0.232079
    20  O   -0.317897
    21  C   -0.058532
    22  H    0.068181
    23  H    0.064799
    24  H    0.066106
    25  H    0.065223
    26  H    0.087244
    27  H    0.114699
    28  H    0.065958
    29  H    0.071516
    30  H    0.068790
    31  H    0.063679
    32  H    0.073432
    33  H    0.055181
    34  H    0.065514
    35  H    0.082152
    36  H    0.062247
    37  H    0.051111
    38  H    0.071453
    39  H    0.064552
    40  H    0.067735
    41  H    0.186113
    42  H    0.073800
 Sum of Mulliken charges =  -0.00000
 Mulliken charges with hydrogens summed into heavy atoms:
               1
     1  C   -0.006166
     2  N   -0.274163
     3  O   -0.258964
     4  C    0.009563
     5  C   -0.004133
     6  C    0.003064
     7  C    0.002450
     8  C    0.073614
     9  C   -0.028251
    10  C    0.172013
    11  C    0.167387
    12  C    0.155139
    13  C    0.022653
    14  C    0.004365
    15  C    0.139233
    16  C    0.125852
    17  I    0.023088
    18  C    0.021853
    19  N   -0.232079
    20  O   -0.131784
    21  C    0.015268
 DipInt: DoE/N= T F RetVal/Mat= T F Init=T NMatP=  1 IDeriv=0 Min/MaxMlt=  0  4
 Entering OneElI...
 OneElI was handed   104796891 working-precision words.
 Multipole integrals L=0 to 4 MinM= 0 MaxM= 0.
 Requested accuracy = 0.1000D-12
 PrtBox:  NBox=     1 Levels=  1 BoxLen=   34.23 SMaxX=       17.34
          Shift=            6.224078            6.690440            4.365035
 Box      1 Number                   0 centers from      1 to     68:
 ShPair: Thresh= 1.00D-13 NBox=     1 BxSize= 3.42D+01 RnKept= 2.20D+01
         NSMCal=                 2346 NSMKep=                2007
 PrmmSu-InSpLW:  IPartL=    0 NPrtUS=    1 NPrtUL=    1 DoSpLW=F IThBeg=    0 IThEnd=    0 NThAct=    1.
 PrsmSu:  NPrtUS=   1 ThrOK=F IAlg=1 NPAlg=1 LenDen=           0 ISkipM=0 DoSpLW=F IThBeg=    0 IThEnd=    0.
 Prism:   IPart=     0 DynPar=F LinDyn=F Incr=          20.
 PRISM was handed   104571050 working-precision words and  2007 shell-pairs
 IPart=  0 NShTot=        2007 NBatch=          43 AvBLen=        46.7
 PrsmSu-ThDecC:  IPartSL=    0    0 NPrtUSL=    1    1 IThBeg=    0 IThEnd=    0 CPU=   -1 GPU=   -1 NThAct=    1.
 PrSmSu:  NxtVal=             21.
 Electronic moments (au):
       -200.00000000          1.93491190          1.15860123          0.46123021
      -5556.32531814      -3182.55780922       -726.88831341         -7.33430142
[...]
    24  H    0.000000   0.000000  -0.000000   0.000000   0.000000   0.000000
    25  H    0.000000  -0.000000   0.000000   0.000000  -0.000000   0.000000
    26  H   -0.000216   0.000040   0.000010  -0.000002   0.000000   0.000000
    27  H    0.000051  -0.000017   0.000127  -0.000222   0.000022   0.000005
    28  H   -0.000071   0.000046   0.000014  -0.000000  -0.000000  -0.000000
    29  H    0.000019   0.000007  -0.000029   0.000002   0.000000  -0.000000
    30  H    0.000044   0.000122   0.000016   0.000000   0.000000   0.000000
    31  H    0.617223  -0.019809  -0.020527  -0.000000  -0.000000  -0.000000
    32  H   -0.019809   0.614245  -0.020852   0.000000   0.000000   0.000000
    33  H   -0.020527  -0.020852   0.630627  -0.000000  -0.000000  -0.000000
    34  H   -0.000000   0.000000  -0.000000   0.617709  -0.023407  -0.000279
    35  H   -0.000000   0.000000  -0.000000  -0.023407   0.614021   0.001106
    36  H   -0.000000   0.000000  -0.000000  -0.000279   0.001106   0.640884
    37  H    0.000000  -0.000000  -0.000000   0.001144  -0.000314  -0.026339
    38  H   -0.000000  -0.000000  -0.000000  -0.000001   0.000001  -0.002052
    39  H   -0.000000  -0.000000   0.000000   0.000001  -0.000001   0.001579
    40  H   -0.000000   0.000000   0.000000   0.000000  -0.000000  -0.001504
    41  H    0.000030  -0.000039   0.000483  -0.000782   0.000003   0.000000
    42  H   -0.000000  -0.000000   0.000000   0.000000  -0.000000   0.000000
              37         38         39         40         41         42
     1  C    0.000000   0.000000  -0.000000  -0.000000   0.000000  -0.024372
     2  N   -0.000000  -0.000000   0.000000  -0.000000  -0.000000  -0.000003
     3  O   -0.014234  -0.000496  -0.000473   0.000470   0.000009  -0.000000
     4  C   -0.000000  -0.000000  -0.000000   0.000000   0.000000  -0.024000
     5  C    0.000000  -0.000000  -0.000000  -0.000000   0.000000   0.001164
     6  C   -0.000000  -0.000000  -0.000000   0.000000  -0.000000   0.001195
     7  C    0.000000   0.000000  -0.000000  -0.000000  -0.000000   0.000026
     8  C    0.000000   0.000000   0.000000  -0.000000  -0.000000  -0.002775
     9  C    0.000000   0.000000  -0.000000   0.000000  -0.000000   0.000130
    10  C    0.000010  -0.000000  -0.000000   0.000000   0.000006  -0.000003
    11  C    0.000002  -0.000000  -0.000002   0.000000  -0.001955   0.000001
    12  C    0.000001   0.000000  -0.000000   0.000000  -0.038676   0.000000
    13  C    0.000000  -0.000000  -0.000000   0.000000   0.002385  -0.000028
    14  C   -0.000000   0.000000   0.000000  -0.000000  -0.004314   0.000000
    15  C   -0.003786   0.000009   0.000007  -0.000027  -0.000141   0.000000
    16  C    0.370468  -0.019515  -0.019706  -0.018048  -0.000022   0.000000
    17  I   -0.000000   0.000000   0.000000  -0.000000  -0.000000  -0.000048
    18  C   -0.021352   0.380893   0.380268   0.379698  -0.000001  -0.000000
    19  N   -0.000000  -0.000000  -0.000000   0.000000   0.000008   0.000021
    20  O   -0.000017  -0.000000   0.000000   0.000000   0.245295  -0.000000
    21  C    0.000000   0.000000   0.000000  -0.000000   0.000000   0.389306
    22  H   -0.000000   0.000000   0.000000  -0.000000  -0.000000  -0.003220
    23  H    0.000000   0.000000   0.000000   0.000000   0.000000  -0.000028
    24  H   -0.000000  -0.000000  -0.000000   0.000000  -0.000000  -0.000026
    25  H    0.000000  -0.000000  -0.000000   0.000000   0.000000   0.000001
    26  H   -0.000000   0.000000   0.000000  -0.000000  -0.000003  -0.000000
    27  H   -0.000005   0.000000   0.000011  -0.000000   0.000518   0.000000
    28  H    0.000000   0.000000  -0.000000  -0.000000  -0.000071  -0.000036
    29  H   -0.000000  -0.000000  -0.000000  -0.000000   0.000022   0.000003
    30  H   -0.000000   0.000000   0.000000  -0.000000   0.000019   0.000000
    31  H    0.000000  -0.000000  -0.000000  -0.000000   0.000030  -0.000000
    32  H   -0.000000  -0.000000  -0.000000   0.000000  -0.000039  -0.000000
    33  H   -0.000000  -0.000000   0.000000   0.000000   0.000483   0.000000
    34  H    0.001144  -0.000001   0.000001   0.000000  -0.000782   0.000000
    35  H   -0.000314   0.000001  -0.000001  -0.000000   0.000003  -0.000000
    36  H   -0.026339  -0.002052   0.001579  -0.001504   0.000000   0.000000
    37  H    0.650772   0.001580  -0.002051  -0.001449   0.000009   0.000000
    38  H    0.001580   0.614253  -0.020942  -0.020127   0.000000  -0.000000
    39  H   -0.002051  -0.020942   0.623536  -0.020443   0.000001   0.000000
    40  H   -0.001449  -0.020127  -0.020443   0.620379   0.000000   0.000000
    41  H    0.000009   0.000000   0.000001   0.000000   0.639181   0.000000
    42  H    0.000000  -0.000000   0.000000   0.000000   0.000000   0.593639
 Mulliken charges:
               1
     1  C   -0.004641
     2  N   -0.258563
     3  O   -0.237115
     4  C   -0.058240
     5  C   -0.059841
     6  C   -0.055869
     7  C   -0.059842
     8  C    0.069126
     9  C   -0.062024
    10  C    0.177865
    11  C   -0.012340
    12  C    0.144030
    13  C   -0.174384
    14  C   -0.181933
    15  C   -0.006391
    16  C    0.014525
    17  I    0.043181
    18  C   -0.169411
    19  N   -0.245979
    20  O   -0.274978
    21  C   -0.053259
    22  H    0.064826
    23  H    0.063273
    24  H    0.064088
    25  H    0.062970
    26  H    0.080941
    27  H    0.087548
    28  H    0.060414
    29  H    0.070095
    30  H    0.064957
    31  H    0.063481
    32  H    0.066492
    33  H    0.052663
    34  H    0.076145
    35  H    0.076176
    36  H    0.053701
    37  H    0.045562
    38  H    0.066397
    39  H    0.058215
    40  H    0.061053
    41  H    0.158035
    42  H    0.069051
 Sum of Mulliken charges =  -0.00000
 Mulliken charges with hydrogens summed into heavy atoms:
               1
     1  C   -0.004641
     2  N   -0.258563
     3  O   -0.237115
     4  C    0.006586
     5  C    0.003432
     6  C    0.008219
     7  C    0.003128
     8  C    0.069126
     9  C   -0.062024
    10  C    0.177865
    11  C    0.156149
    12  C    0.144030
    13  C    0.021082
    14  C    0.000702
    15  C    0.145930
    16  C    0.113788
    17  I    0.043181
    18  C    0.016254
    19  N   -0.245979
    20  O   -0.116943
    21  C    0.015793
 DipInt: DoE/N= T F RetVal/Mat= T F Init=T NMatP=  1 IDeriv=0 Min/MaxMlt=  0  4
 Entering OneElI...
 OneElI was handed   104796891 working-precision words.
 Multipole integrals L=0 to 4 MinM= 0 MaxM= 0.
 Requested accuracy = 0.1000D-12
 PrtBox:  NBox=     1 Levels=  1 BoxLen=   34.23 SMaxX=       19.71
          Shift=            7.158544            5.753643            5.766013
 Box      1 Number                   0 centers from      1 to     68:
 ShPair: Thresh= 1.00D-13 NBox=     1 BxSize= 3.42D+01 RnKept= 2.27D+01
         NSMCal=                 2346 NSMKep=                1991
 PrmmSu-InSpLW:  IPartL=    0 NPrtUS=    1 NPrtUL=    1 DoSpLW=F IThBeg=    0 IThEnd=    0 NThAct=    1.
 PrsmSu:  NPrtUS=   1 ThrOK=F IAlg=1 NPAlg=1 LenDen=           0 ISkipM=0 DoSpLW=F IThBeg=    0 IThEnd=    0.
 Prism:   IPart=     0 DynPar=F LinDyn=F Incr=          19.
 PRISM was handed   104575843 working-precision words and  1991 shell-pairs
 IPart=  0 NShTot=        1991 NBatch=          43 AvBLen=        46.3
 PrsmSu-ThDecC:  IPartSL=    0    0 NPrtUSL=    1    1 IThBeg=    0 IThEnd=    0 CPU=   -1 GPU=   -1 NThAct=    1.
 PrSmSu:  NxtVal=             20.
 Electronic moments (au):
       -200.00000000          1.52768613          1.76479534          0.30575264
      -5762.72687410      -3063.40610002       -879.78634246         -5.02977593
          1.58823617          0.71668365     -13370.30152821      -5606.90476129
       -332.44885289       2783.27269556       5583.83380655      -3052.91791343
      -2181.64244919      -1979.38147128       -914.55050135       4369.55656493
    -318016.01019468     -85206.81215239     -13859.36696212      36539.27631446
     -39494.21663703      12316.06149006      -6841.83612727       1122.76796347
        639.78751872     -91351.42233002     -30711.22218473     -16473.45241756
      14306.60476138       8029.52471767       6174.37886664
 Electronic spatial extent (au):  <R**2>=           9705.9193
 DipInt: DoE/N= F T RetVal/Mat= T F Init=T NMatP=  1 IDeriv=0 Min/MaxMlt=  0  4
 Nuclear    moments (au):
        200.00000000         -0.00000000          0.00000000         -0.00000000
       5669.05093171       2961.42823015        775.54522898         -0.00000000
          0.00000000          0.00000000      13356.98279828       5529.15621224
        327.74473262      -2806.54431439      -5620.31916077       3050.64502115
       2120.96649571       1947.30654591        918.24204276      -4368.03927086
     301729.00512270      75573.67789927      10989.12446255     -36231.08637027
      39652.90869490     -11920.56621645       6877.43948566      -1034.05347798
       -600.08842106      87179.73327294      27235.36350889      14454.53071908
     -14325.93922852      -8084.58984659      -5994.91820163
 Total      moments (au):
          0.00000000          1.52768613          1.76479534          0.30575264
        -93.67594239       -101.97786987       -104.24111348         -5.02977593
          1.58823617          0.71668365        -13.31872993        -77.74854905
         -4.70412026        -23.27161883        -36.48535422         -2.27289228
        -60.67595349        -32.07492538          3.69154141          1.51729407
     -16287.00507198      -9633.13425312      -2870.24249957        308.18994419
        158.69205787        395.49527361         35.60335839         88.71448549
         39.69909766      -4171.68905708      -3475.85867584      -2018.92169849
        -19.33446714        -55.06512893        179.46066500
 Charge=              0.0000 electrons
 Dipole moment (field-independent basis, Debye):
    X=              3.8830    Y=              4.4857    Z=              0.7771  Tot=              5.9835
 Quadrupole moment (field-independent basis, Debye-Ang):
   XX=           -125.9974   YY=           -137.1637   ZZ=           -140.2079
   XY=             -6.7652   XZ=              2.1362   YZ=              0.9640
 Traceless Quadrupole moment (field-independent basis, Debye-Ang):
   XX=              8.4590   YY=             -2.7074   ZZ=             -5.7516
   XY=             -6.7652   XZ=              2.1362   YZ=              0.9640
 Octapole moment (field-independent basis, Debye-Ang**2):
  XXX=             -9.4798  YYY=            -55.3384  ZZZ=             -3.3482  XYY=            -16.5638
  XXY=            -25.9689  XXZ=             -1.6178  XZZ=            -43.1868  YZZ=            -22.8297
  YYZ=              2.6275  XYZ=              1.0800
 Hexadecapole moment (field-independent basis, Debye-Ang**3):
 XXXX=          -6134.4671 YYYY=          -3628.3003 ZZZZ=          -1081.0710 XXXY=            116.0791
 XXXZ=             59.7710 YYYX=            148.9625 YYYZ=             13.4099 ZZZX=             33.4141
 ZZZY=             14.9526 XXYY=          -1571.2581 XXZZ=          -1309.1751 YYZZ=           -760.4227
 XXYZ=             -7.2823 YYXZ=            -20.7402 ZZXY=             67.5935
 N-N= 2.385598730212D+03 E-N=-2.308734632447D+04  KE= 7.708521943581D+03
 Entering OneElI...
 OneElI was handed   104807572 working-precision words.
 Calculate electrostatic properties
    NBasis =   148  MinDer = 0  MaxDer = 0
    NGrid  =    42  NMatD  =   1
 Requested accuracy = 0.1000D-12
 PrtBox:  NBox=     1 Levels=  1 BoxLen=   28.53 SMaxX=       19.71
          Shift=            7.158544            5.753643            5.766013
 Box      1 Number                   0 centers from      1 to     68:
 ShPair: Thresh= 1.00D-13 NBox=     1 BxSize= 2.85D+01 RnKept= 1.70D+01
         NSMCal=                 2346 NSMKep=                1656
 PrmmSu-InSpLW:  IPartL=    0 NPrtUS=    1 NPrtUL=    1 DoSpLW=F IThBeg=    0 IThEnd=    0 NThAct=    1.
 PrsmSu:  NPrtUS=   1 ThrOK=F IAlg=1 NPAlg=1 LenDen=           0 ISkipM=0 DoSpLW=F IThBeg=    0 IThEnd=    0.
 Prism:   IPart=     0 DynPar=F LinDyn=F Incr=         512.
 PRISM was handed   104627993 working-precision words and  1656 shell-pairs
 IPart=  0 NShTot=       69552 NBatch=        1656 AvBLen=        42.0
 PrsmSu-ThDecC:  IPartSL=    0    0 NPrtUSL=    1    1 IThBeg=    0 IThEnd=    0 CPU=   -1 GPU=   -1 NThAct=    1.
 PrSmSu:  NxtVal=            513.
 --------------------------------------------------------
       Center         ----      EFG at Nuclei      ----
                      3XX-RR        3YY-RR        3ZZ-RR
 --------------------------------------------------------
     1   Atom        0.051054     -0.031621     -0.019434
     2   Atom       -0.727587      0.639393      0.088195
     3   Atom       -1.498824      1.701345     -0.202521
     4   Atom        0.032634      0.000774     -0.033408
     5   Atom        0.052681      0.005095     -0.057776
     6   Atom        0.035364     -0.001506     -0.033858
     7   Atom        0.038280      0.000699     -0.038979
     8   Atom       -0.340785     -0.058147      0.398932
     9   Atom       -0.227022     -0.158344      0.385366
    10   Atom       -0.071808     -0.312857      0.384665
    11   Atom       -0.024771     -0.096519      0.121289
    12   Atom        0.026309     -0.013417     -0.012892
    13   Atom       -0.017250      0.023122     -0.005872
    14   Atom        0.000475     -0.009991      0.009516
    15   Atom       -0.018380      0.081730     -0.063351
    16   Atom       -0.101084      0.043382      0.057702
    17   Atom       -4.620241      1.937014      2.683226
    18   Atom       -0.002849      0.009567     -0.006718
    19   Atom       -0.519136     -0.462470      0.981606
    20   Atom       -1.456334      1.218221      0.238114
    21   Atom        0.037492     -0.001168     -0.036324
    22   Atom       -0.057121      0.091437     -0.034316
    23   Atom       -0.045859      0.088420     -0.042560
    24   Atom        0.024944     -0.144385      0.119442
    25   Atom        0.136376      0.055465     -0.191842
    26   Atom        0.047413     -0.070370      0.022957
    27   Atom       -0.123152      0.089932      0.033220
    28   Atom       -0.070332      0.005832      0.064500
    29   Atom        0.075331     -0.190359      0.115028
    30   Atom        0.093877      0.058143     -0.152020
    31   Atom       -0.053046     -0.026603      0.079649
    32   Atom        0.082186      0.071326     -0.153513
    33   Atom       -0.088979      0.129603     -0.040624
    34   Atom        0.055918      0.066386     -0.122304
    35   Atom        0.133236     -0.261659      0.128423
    36   Atom        0.129782     -0.263611      0.133829
    37   Atom        0.052339      0.076979     -0.129318
    38   Atom        0.064624      0.077849     -0.142473
    39   Atom        0.145256     -0.282934      0.137678
    40   Atom       -0.229108      0.089655      0.139454
    41   Atom       -0.170443      0.173962     -0.003519
    42   Atom        0.135298      0.052961     -0.188259
 --------------------------------------------------------
                        XY            XZ            YZ
 --------------------------------------------------------
     1   Atom        0.126232     -0.059435     -0.071114
     2   Atom        0.022377      0.035814      0.122392
     3   Atom        0.834235     -1.044970     -1.042020
     4   Atom        0.095043     -0.070176     -0.058454
     5   Atom        0.108496     -0.073933     -0.062526
     6   Atom        0.099484     -0.072048     -0.060676
     7   Atom        0.097900     -0.068194     -0.061600
     8   Atom        0.013698      0.026205     -0.121775
     9   Atom       -0.020779      0.024985     -0.122177
    10   Atom        0.013284      0.019521     -0.154124
    11   Atom       -0.178485     -0.033158     -0.048520
    12   Atom        0.044754      0.082810     -0.035112
    13   Atom        0.015793     -0.026130      0.004722
    14   Atom       -0.005559     -0.012006     -0.007862
    15   Atom        0.003671     -0.075815     -0.058435
    16   Atom        0.078056      0.041588     -0.016379
    17   Atom       -2.553924     -0.168271     -0.028069
    18   Atom       -0.001049     -0.020833     -0.012076
    19   Atom       -0.063691      0.081294     -0.270825
    20   Atom        1.414164     -0.718512     -1.165267
    21   Atom        0.103335     -0.079602     -0.050968
    22   Atom        0.108581     -0.193101      0.095253
    23   Atom        0.109023     -0.189358      0.100328
    24   Atom        0.191842      0.051399     -0.086389
    25   Atom       -0.025770     -0.060690     -0.175920
    26   Atom        0.130309      0.106287     -0.159876
    27   Atom        0.100693     -0.162059      0.068363
    28   Atom        0.173691      0.124984     -0.103470
    29   Atom       -0.150485     -0.045901     -0.093568
    30   Atom       -0.066208      0.116445      0.161341
    31   Atom        0.179419      0.113740     -0.105178
    32   Atom       -0.066692      0.133588      0.144286
    33   Atom        0.041410     -0.208638      0.036632
    34   Atom       -0.072137      0.130070      0.132080
    35   Atom       -0.003863     -0.005655     -0.055525
    36   Atom       -0.009910     -0.004379     -0.042672
    37   Atom       -0.066482      0.141907      0.128631
    38   Atom       -0.074286      0.149996      0.136435
    39   Atom       -0.018757     -0.004069     -0.044671
    40   Atom        0.143814      0.029940     -0.013663
    41   Atom        0.018790     -0.234955     -0.018161
    42   Atom       -0.026360     -0.062887     -0.175491
 --------------------------------------------------------


 ---------------------------------------------------------------------------------
              Nuclear Quadrupole Coupling Constant in Principal Axis System
 ---------------------------------------------------------------------------------

       Atom             a.u.   MegaHertz   Gauss  10(-4) cm-1        Axes

              Baa    -0.7294     3.503     1.250     1.168  0.9990 -0.0126 -0.0419
     2 N(14)  Bbb     0.0634    -0.305    -0.109    -0.102  0.0383 -0.2091  0.9771
              Bcc     0.6660    -3.198    -1.141    -1.067  0.0211  0.9778  0.2084
 
              Baa    -5.5010  -917.708  -327.461  -306.114  0.9456  0.3248  0.0206
    17 I(127) Bbb     2.6808   447.219   159.579   149.176  0.0479 -0.2014  0.9783
              Bcc     2.8203   470.489   167.882   156.938 -0.3219  0.9241  0.2059
 
              Baa    -0.5666     2.721     0.971     0.908  0.7514  0.6555  0.0752
    19 N(14)  Bbb    -0.4695     2.255     0.805     0.752 -0.6572  0.7334  0.1737
              Bcc     1.0361    -4.976    -1.776    -1.660  0.0587 -0.1800  0.9819
 

 ---------------------------------------------------------------------------------

 No NMR shielding tensors so no spin-rotation constants.
 Leave Link  601 at Mon Jun 17 14:07:38 2024, MaxMem=   104857600 cpu:               0.1 elap:               0.2
 FitSet:  NAtFit=    42 NAtPot=    42 NAtFrz=     0 MDM=    46 TotChg=   0.00000
 Merz-Kollman atomic radii used.
 Read replacement radii for each type of atom:
 Atom Element Radius
    1     6    1.50
    2     7    1.50
    3     8    1.40
    4     6    1.50
    5     6    1.50
    6     6    1.50
    7     6    1.50
    8     6    1.50
    9     6    1.50
   10     6    1.50
   11     6    1.50
   12     6    1.50
   13     6    1.50
   14     6    1.50
   15     6    1.50
   16     6    1.50
   17    53    0.00
 GetVDW:  no radius for atom  17 atomic number  53.
 Error termination via Lnk1e in /afs/math/software/gaussian/g16.A03/g16/l602.exe at Mon Jun 17 14:07:38 2024.
 Job cpu time:       0 days  0 hours 24 minutes 52.7 seconds.
 Elapsed time:       0 days  0 hours 26 minutes  6.4 seconds.
 File lengths (MBytes):  RWF=   2596 Int=      0 D2E=      0 Chk=      5 Scr=      1
